       N       E                     dE             d eps       ncg     rms          rms(c)
DAV:   1     0.790718060034E+04    0.79072E+04   -0.37987E+05 53184   0.132E+03
DAV:   2     0.112173070146E+03   -0.77950E+04   -0.72737E+04 61280   0.359E+02
DAV:   3    -0.952279923683E+03   -0.10645E+04   -0.10387E+04 60484   0.142E+02
DAV:   4    -0.100234289240E+04   -0.50063E+02   -0.48992E+02 61808   0.346E+01
DAV:   5    -0.100460016709E+04   -0.22573E+01   -0.22476E+01 73288   0.702E+00    0.166E+02
DAV:   6    -0.787045344672E+03    0.21755E+03   -0.90850E+02 65668   0.681E+01    0.826E+01
DAV:   7    -0.783630331347E+03    0.34150E+01   -0.18053E+02 62162   0.462E+01    0.497E+01
DAV:   8    -0.777039770421E+03    0.65906E+01   -0.38131E+01 67730   0.143E+01    0.308E+01
DAV:   9    -0.776910652746E+03    0.12912E+00   -0.11745E+01 67256   0.175E+01    0.230E+01
DAV:  10    -0.790706307724E+03   -0.13796E+02   -0.86126E+00 64928   0.548E+00    0.184E+01
DAV:  11    -0.802608616732E+03   -0.11902E+02   -0.40540E+00 59136   0.656E+00    0.161E+01
DAV:  12    -0.817742891493E+03   -0.15134E+02   -0.42856E+00 64032   0.436E+00    0.136E+01
DAV:  13    -0.845378071290E+03   -0.27635E+02   -0.20965E+01 57950   0.567E+00    0.949E+00
DAV:  14    -0.865232899787E+03   -0.19855E+02   -0.16905E+01 63728   0.495E+00    0.694E+00
DAV:  15    -0.877093355616E+03   -0.11860E+02   -0.83608E+00 59552   0.359E+00    0.547E+00
DAV:  16    -0.882812323033E+03   -0.57190E+01   -0.27339E+00 61280   0.263E+00    0.495E+00
DAV:  17    -0.885457089542E+03   -0.26448E+01   -0.10167E+00 62808   0.236E+00    0.417E+00
DAV:  18    -0.888317060282E+03   -0.28600E+01   -0.96401E-01 62214   0.148E+00    0.334E+00
DAV:  19    -0.890192678022E+03   -0.18756E+01   -0.92143E-01 56600   0.130E+00    0.276E+00
DAV:  20    -0.891514601750E+03   -0.13219E+01   -0.51978E-01 58594   0.114E+00    0.214E+00
DAV:  21    -0.892945094589E+03   -0.14305E+01   -0.27154E-01 66672   0.113E+00    0.160E+00
DAV:  22    -0.893840146399E+03   -0.89505E+00   -0.19406E-01 57992   0.755E-01    0.122E+00
DAV:  23    -0.894035006756E+03   -0.19486E+00   -0.63256E-02 59976   0.439E-01    0.798E-01
DAV:  24    -0.894072925474E+03   -0.37919E-01   -0.18303E-02 68174   0.376E-01    0.556E-01
DAV:  25    -0.894274047590E+03   -0.20112E+00   -0.85765E-03 62360   0.332E-01    0.377E-01
DAV:  26    -0.894634099718E+03   -0.36005E+00   -0.65291E-03 59904   0.178E-01    0.221E-01
DAV:  27    -0.894944225313E+03   -0.31013E+00   -0.54405E-03 63948   0.150E-01    0.136E-01
DAV:  28    -0.895064958445E+03   -0.12073E+00   -0.22201E-03 59880   0.102E-01    0.961E-02
DAV:  29    -0.895098517498E+03   -0.33559E-01   -0.36737E-04 64736   0.463E-02    0.686E-02
DAV:  30    -0.895124398153E+03   -0.25881E-01   -0.35816E-04 64784   0.402E-02    0.321E-02
DAV:  31    -0.895132225886E+03   -0.78277E-02   -0.12877E-04 60200   0.238E-02    0.189E-02
DAV:  32    -0.895133707031E+03   -0.14811E-02   -0.25990E-05 47960   0.141E-02    0.129E-02
DAV:  33    -0.895134313751E+03   -0.60672E-03   -0.16645E-05 43328   0.874E-03    0.994E-03
DAV:  34    -0.895134703901E+03   -0.39015E-03   -0.11046E-05 42248   0.753E-03    0.732E-03
DAV:  35    -0.895134860606E+03   -0.15670E-03   -0.54784E-06 41616   0.517E-03    0.505E-03
DAV:  36    -0.895134953683E+03   -0.93077E-04   -0.38037E-06 40632   0.393E-03    0.434E-03
DAV:  37    -0.895135032608E+03   -0.78926E-04   -0.36560E-06 40208   0.315E-03    0.297E-03
DAV:  38    -0.895135098655E+03   -0.66047E-04   -0.29872E-06 40408   0.283E-03    0.291E-03
DAV:  39    -0.895135146966E+03   -0.48311E-04   -0.15579E-06 40272   0.229E-03    0.241E-03
DAV:  40    -0.895135194407E+03   -0.47441E-04   -0.11692E-06 39672   0.155E-03    0.207E-03
DAV:  41    -0.895135236512E+03   -0.42104E-04   -0.70219E-07 39584   0.141E-03    0.164E-03
DAV:  42    -0.895135268956E+03   -0.32444E-04   -0.55711E-07 39392   0.102E-03    0.149E-03
DAV:  43    -0.895135283247E+03   -0.14291E-04   -0.24977E-07 38000   0.783E-04    0.140E-03
DAV:  44    -0.895135295789E+03   -0.12542E-04   -0.18849E-07 37584   0.611E-04    0.127E-03
DAV:  45    -0.895135305705E+03   -0.99164E-05   -0.17958E-07 37960   0.546E-04
   1 F= -.91532489E+03 E0= -.91531813E+03  d E =-.915325E+03  mag=    24.9836
       N       E                     dE             d eps       ncg     rms          rms(c)
DAV:   1    -0.895341641153E+03   -0.20635E+00   -0.11881E+02 52032   0.127E+01    0.437E+00
DAV:   2    -0.895517728537E+03   -0.17609E+00   -0.40815E+00 57914   0.245E+00    0.229E+00
DAV:   3    -0.895555665256E+03   -0.37937E-01   -0.20151E-01 58368   0.743E-01    0.153E+00
DAV:   4    -0.895577048917E+03   -0.21384E-01   -0.61072E-02 60760   0.588E-01    0.105E+00
DAV:   5    -0.895581954289E+03   -0.49054E-02   -0.37231E-02 59240   0.391E-01    0.522E-01
DAV:   6    -0.895592841856E+03   -0.10888E-01   -0.91264E-03 58632   0.211E-01    0.310E-01
DAV:   7    -0.895601170501E+03   -0.83286E-02   -0.27509E-03 62872   0.132E-01    0.247E-01
DAV:   8    -0.895608185617E+03   -0.70151E-02   -0.15349E-03 60952   0.826E-02    0.190E-01
DAV:   9    -0.895612897842E+03   -0.47122E-02   -0.15165E-03 60040   0.660E-02    0.153E-01
DAV:  10    -0.895618300022E+03   -0.54022E-02   -0.81506E-04 61792   0.476E-02    0.131E-01
DAV:  11    -0.895632875234E+03   -0.14575E-01   -0.57125E-04 58992   0.372E-02    0.107E-01
DAV:  12    -0.895649153507E+03   -0.16278E-01   -0.58615E-04 59184   0.364E-02    0.817E-02
DAV:  13    -0.895666645415E+03   -0.17492E-01   -0.57515E-04 59800   0.339E-02    0.616E-02
DAV:  14    -0.895680624745E+03   -0.13979E-01   -0.27853E-04 57880   0.255E-02    0.489E-02
DAV:  15    -0.895694556795E+03   -0.13932E-01   -0.16467E-04 56232   0.222E-02    0.388E-02
DAV:  16    -0.895708606618E+03   -0.14050E-01   -0.14234E-04 57792   0.222E-02    0.325E-02
DAV:  17    -0.895719821843E+03   -0.11215E-01   -0.10074E-04 55712   0.163E-02    0.250E-02
DAV:  18    -0.895731943517E+03   -0.12122E-01   -0.11622E-04 54288   0.141E-02    0.181E-02
DAV:  19    -0.895739041707E+03   -0.70982E-02   -0.50050E-05 50880   0.102E-02    0.131E-02
DAV:  20    -0.895743353194E+03   -0.43115E-02   -0.23821E-05 45032   0.924E-03    0.108E-02
DAV:  21    -0.895746045797E+03   -0.26926E-02   -0.15025E-05 43376   0.830E-03    0.801E-03
DAV:  22    -0.895747915429E+03   -0.18696E-02   -0.11034E-05 43008   0.630E-03    0.645E-03
DAV:  23    -0.895749099163E+03   -0.11837E-02   -0.63639E-06 41640   0.481E-03    0.454E-03
DAV:  24    -0.895749800925E+03   -0.70176E-03   -0.43019E-06 41400   0.370E-03    0.390E-03
DAV:  25    -0.895750134078E+03   -0.33315E-03   -0.27555E-06 41280   0.335E-03    0.256E-03
DAV:  26    -0.895750243953E+03   -0.10988E-03   -0.17189E-06 40688   0.220E-03    0.228E-03
DAV:  27    -0.895750288480E+03   -0.44527E-04   -0.10693E-06 40200   0.180E-03    0.181E-03
DAV:  28    -0.895750303793E+03   -0.15313E-04   -0.62087E-07 39184   0.123E-03    0.147E-03
DAV:  29    -0.895750312854E+03   -0.90606E-05   -0.36982E-07 39128   0.871E-04
   2 F= -.91593659E+03 E0= -.91593630E+03  d E =-.611697E+00  mag=    24.0003
       N       E                     dE             d eps       ncg     rms          rms(c)
DAV:   1    -0.895866585321E+03   -0.11628E+00   -0.68624E+00 52188   0.323E+00    0.906E-01
DAV:   2    -0.895864075497E+03    0.25098E-02   -0.20225E-01 61712   0.704E-01    0.554E-01
DAV:   3    -0.895861269659E+03    0.28058E-02   -0.35767E-02 62856   0.296E-01    0.381E-01
DAV:   4    -0.895859822193E+03    0.14475E-02   -0.49058E-03 64352   0.142E-01    0.252E-01
DAV:   5    -0.895859067569E+03    0.75462E-03   -0.20318E-03 62912   0.131E-01    0.133E-01
DAV:   6    -0.895858777727E+03    0.28984E-03   -0.10464E-03 60792   0.811E-02    0.599E-02
DAV:   7    -0.895858814535E+03   -0.36808E-04   -0.54259E-04 64136   0.444E-02    0.399E-02
DAV:   8    -0.895858835104E+03   -0.20569E-04   -0.42324E-05 55568   0.170E-02    0.254E-02
DAV:   9    -0.895858878779E+03   -0.43675E-04   -0.16093E-05 44176   0.114E-02    0.147E-02
DAV:  10    -0.895858918675E+03   -0.39896E-04   -0.82485E-06 42520   0.805E-03    0.636E-03
DAV:  11    -0.895858945409E+03   -0.26735E-04   -0.34744E-06 40192   0.495E-03    0.551E-03
DAV:  12    -0.895858967082E+03   -0.21672E-04   -0.23622E-06 40168   0.445E-03    0.472E-03
DAV:  13    -0.895859002825E+03   -0.35743E-04   -0.15165E-06 39944   0.400E-03    0.287E-03
DAV:  14    -0.895859034729E+03   -0.31904E-04   -0.26594E-06 40248   0.300E-03    0.366E-03
DAV:  15    -0.895859044543E+03   -0.98140E-05   -0.93533E-07 40416   0.225E-03
   3 F= -.91604562E+03 E0= -.91604530E+03  d E =-.720727E+00  mag=    24.0003
       N       E                     dE             d eps       ncg     rms          rms(c)
DAV:   1    -0.895727425795E+03    0.13161E+00   -0.79476E+01 52280   0.897E+00    0.359E+00
DAV:   2    -0.895791836619E+03   -0.64411E-01   -0.20299E+00 60296   0.137E+00    0.153E+00
DAV:   3    -0.895770731998E+03    0.21105E-01   -0.18132E-01 63304   0.531E-01    0.108E+00
DAV:   4    -0.895765598338E+03    0.51337E-02   -0.30646E-02 65192   0.285E-01    0.475E-01
DAV:   5    -0.895763897298E+03    0.17010E-02   -0.71655E-03 65592   0.244E-01    0.232E-01
DAV:   6    -0.895764289023E+03   -0.39172E-03   -0.47807E-03 63424   0.889E-02    0.120E-01
DAV:   7    -0.895764569594E+03   -0.28057E-03   -0.11464E-03 63184   0.482E-02    0.731E-02
DAV:   8    -0.895764915830E+03   -0.34624E-03   -0.13039E-04 58952   0.333E-02    0.413E-02
DAV:   9    -0.895765207465E+03   -0.29164E-03   -0.70146E-05 58416   0.243E-02    0.233E-02
DAV:  10    -0.895765372805E+03   -0.16534E-03   -0.27135E-05 51704   0.110E-02    0.108E-02
DAV:  11    -0.895765536139E+03   -0.16333E-03   -0.10899E-05 44792   0.836E-03    0.875E-03
DAV:  12    -0.895765674328E+03   -0.13819E-03   -0.13116E-05 46344   0.441E-03    0.563E-03
DAV:  13    -0.895765774174E+03   -0.99846E-04   -0.69522E-06 42968   0.335E-03    0.430E-03
DAV:  14    -0.895765829306E+03   -0.55132E-04   -0.33013E-06 41184   0.314E-03    0.324E-03
DAV:  15    -0.895765891224E+03   -0.61918E-04   -0.56790E-06 41816   0.276E-03    0.273E-03
DAV:  16    -0.895765925109E+03   -0.33885E-04   -0.32663E-06 40808   0.239E-03    0.216E-03
DAV:  17    -0.895765938431E+03   -0.13323E-04   -0.12477E-06 40352   0.180E-03    0.165E-03
DAV:  18    -0.895765952809E+03   -0.14378E-04   -0.10848E-06 40392   0.138E-03    0.166E-03
DAV:  19    -0.895765960224E+03   -0.74149E-05   -0.51523E-07 38728   0.110E-03
   4 F= -.91595229E+03 E0= -.91595206E+03  d E =0.933270E-01  mag=    24.0002
       N       E                     dE             d eps       ncg     rms          rms(c)
DAV:   1    -0.896050985381E+03   -0.28503E+00   -0.20554E+01 54260   0.487E+00    0.144E+00
DAV:   2    -0.896072810831E+03   -0.21825E-01   -0.60459E-01 60584   0.812E-01    0.769E-01
DAV:   3    -0.896067301817E+03    0.55090E-02   -0.56957E-02 64272   0.274E-01    0.585E-01
DAV:   4    -0.896065563600E+03    0.17382E-02   -0.74287E-03 66344   0.134E-01    0.370E-01
DAV:   5    -0.896064407498E+03    0.11561E-02   -0.24703E-03 65224   0.134E-01    0.168E-01
DAV:   6    -0.896064309512E+03    0.97986E-04   -0.14501E-03 63792   0.684E-02    0.108E-01
DAV:   7    -0.896064375019E+03   -0.65507E-04   -0.81005E-04 62600   0.423E-02    0.519E-02
DAV:   8    -0.896064397865E+03   -0.22846E-04   -0.39773E-05 49856   0.189E-02    0.293E-02
DAV:   9    -0.896064450476E+03   -0.52610E-04   -0.20183E-05 45792   0.131E-02    0.168E-02
DAV:  10    -0.896064496378E+03   -0.45902E-04   -0.11329E-05 43472   0.975E-03    0.644E-03
DAV:  11    -0.896064520126E+03   -0.23749E-04   -0.34491E-06 40312   0.401E-03    0.595E-03
DAV:  12    -0.896064539326E+03   -0.19200E-04   -0.13825E-06 38832   0.430E-03    0.415E-03
DAV:  13    -0.896064580809E+03   -0.41483E-04   -0.19597E-06 39224   0.292E-03    0.262E-03
DAV:  14    -0.896064606729E+03   -0.25920E-04   -0.16148E-06 40648   0.252E-03    0.295E-03
DAV:  15    -0.896064616875E+03   -0.10146E-04   -0.60981E-07 39056   0.178E-03    0.180E-03
DAV:  16    -0.896064634177E+03   -0.17302E-04   -0.73390E-07 38888   0.970E-04    0.153E-03
DAV:  17    -0.896064648436E+03   -0.14259E-04   -0.41674E-07 39440   0.108E-03    0.160E-03
DAV:  18    -0.896064654525E+03   -0.60893E-05   -0.22377E-07 39048   0.817E-04
   5 F= -.91625110E+03 E0= -.91625085E+03  d E =-.205483E+00  mag=    24.0002
       N       E                     dE             d eps       ncg     rms          rms(c)
DAV:   1    -0.896251094014E+03   -0.18645E+00   -0.15029E+01 51784   0.531E+00    0.162E+00
DAV:   2    -0.896251842382E+03   -0.74837E-03   -0.44516E-01 61920   0.105E+00    0.105E+00
DAV:   3    -0.896244924722E+03    0.69177E-02   -0.62808E-02 62360   0.437E-01    0.605E-01
DAV:   4    -0.896242405633E+03    0.25191E-02   -0.13555E-02 63384   0.254E-01    0.363E-01
DAV:   5    -0.896241773468E+03    0.63217E-03   -0.53364E-03 61440   0.216E-01    0.183E-01
DAV:   6    -0.896241435357E+03    0.33811E-03   -0.19611E-03 59776   0.104E-01    0.884E-02
DAV:   7    -0.896241432538E+03    0.28191E-05   -0.48112E-04 64192   0.562E-02    0.623E-02
DAV:   8    -0.896241438593E+03   -0.60550E-05   -0.61485E-05 57920   0.228E-02
   6 F= -.91642848E+03 E0= -.91642824E+03  d E =-.177384E+00  mag=    24.0002
       N       E                     dE             d eps       ncg     rms          rms(c)
DAV:   1    -0.896242645437E+03   -0.12129E-02   -0.78400E-02 53424   0.380E-01    0.120E-01
DAV:   2    -0.896242682026E+03   -0.36588E-04   -0.22321E-03 60480   0.737E-02    0.792E-02
DAV:   3    -0.896242684990E+03   -0.29643E-05   -0.33103E-04 61344   0.319E-02    0.424E-02
DAV:   4    -0.896242712485E+03   -0.27495E-04   -0.76827E-05 58032   0.221E-02    0.248E-02
DAV:   5    -0.896242734888E+03   -0.22403E-04   -0.24361E-05 49368   0.164E-02    0.129E-02
DAV:   6    -0.896242753066E+03   -0.18178E-04   -0.66341E-06 40752   0.686E-03    0.669E-03
DAV:   7    -0.896242764132E+03   -0.11066E-04   -0.28229E-06 39640   0.382E-03    0.535E-03
DAV:   8    -0.896242773197E+03   -0.90651E-05   -0.86808E-07 38840   0.263E-03
   7 F= -.91642978E+03 E0= -.91642954E+03  d E =-.178682E+00  mag=    24.0002
       N       E                     dE             d eps       ncg     rms          rms(c)
DAV:   1    -0.896276067300E+03   -0.33303E-01   -0.30174E+00 52412   0.237E+00    0.581E-01
DAV:   2    -0.896281118587E+03   -0.50513E-02   -0.79233E-02 60904   0.379E-01    0.319E-01
DAV:   3    -0.896280195228E+03    0.92336E-03   -0.37111E-03 61912   0.112E-01    0.184E-01
DAV:   4    -0.896279962174E+03    0.23305E-03   -0.19989E-03 65648   0.902E-02    0.911E-02
DAV:   5    -0.896279945097E+03    0.17077E-04   -0.32295E-04 66544   0.580E-02    0.511E-02
DAV:   6    -0.896279946691E+03   -0.15943E-05   -0.12982E-04 59368   0.226E-02    0.277E-02
DAV:   7    -0.896279948883E+03   -0.21915E-05   -0.19409E-05 46368   0.132E-02
   8 F= -.91646683E+03 E0= -.91646660E+03  d E =-.370430E-01  mag=    24.0002
       N       E                     dE             d eps       ncg     rms          rms(c)
DAV:   1    -0.896282838856E+03   -0.28922E-02   -0.49684E-01 52444   0.959E-01    0.233E-01
DAV:   2    -0.896283684474E+03   -0.84562E-03   -0.13119E-02 60816   0.155E-01    0.128E-01
DAV:   3    -0.896283533218E+03    0.15126E-03   -0.60864E-04 61824   0.451E-02    0.733E-02
DAV:   4    -0.896283494309E+03    0.38909E-04   -0.33437E-04 63176   0.345E-02    0.352E-02
DAV:   5    -0.896283495836E+03   -0.15271E-05   -0.43275E-05 51304   0.202E-02    0.207E-02
DAV:   6    -0.896283499220E+03   -0.33847E-05   -0.21179E-05 45536   0.765E-03
   9 F= -.91647031E+03 E0= -.91647008E+03  d E =-.405233E-01  mag=    24.0002
       N       E                     dE             d eps       ncg     rms          rms(c)
DAV:   1    -0.896303241887E+03   -0.19746E-01   -0.12490E+00 51660   0.159E+00    0.365E-01
DAV:   2    -0.896304567189E+03   -0.13253E-02   -0.27715E-02 60584   0.240E-01    0.201E-01
DAV:   3    -0.896304413708E+03    0.15348E-03   -0.21988E-03 62072   0.800E-02    0.113E-01
DAV:   4    -0.896304475538E+03   -0.61830E-04   -0.55559E-04 64264   0.546E-02    0.670E-02
DAV:   5    -0.896304500005E+03   -0.24468E-04   -0.16809E-04 59224   0.376E-02    0.332E-02
DAV:   6    -0.896304503758E+03   -0.37529E-05   -0.46310E-05 57144   0.184E-02
  10 F= -.91649089E+03 E0= -.91649067E+03  d E =-.205869E-01  mag=    24.0002
       N       E                     dE             d eps       ncg     rms          rms(c)
DAV:   1    -0.896309969014E+03   -0.54690E-02   -0.88271E-01 51716   0.134E+00    0.311E-01
DAV:   2    -0.896310927036E+03   -0.95802E-03   -0.19592E-02 60584   0.202E-01    0.170E-01
DAV:   3    -0.896310836024E+03    0.91012E-04   -0.15658E-03 62392   0.693E-02    0.954E-02
DAV:   4    -0.896310891507E+03   -0.55483E-04   -0.39865E-04 63352   0.490E-02    0.577E-02
DAV:   5    -0.896310921077E+03   -0.29570E-04   -0.12018E-04 58336   0.328E-02    0.284E-02
DAV:   6    -0.896310934006E+03   -0.12930E-04   -0.32164E-05 54800   0.150E-02    0.125E-02
DAV:   7    -0.896310946484E+03   -0.12478E-04   -0.60889E-06 40632   0.788E-03    0.851E-03
DAV:   8    -0.896310958183E+03   -0.11699E-04   -0.27194E-06 40520   0.397E-03    0.604E-03
DAV:   9    -0.896310970155E+03   -0.11972E-04   -0.14368E-06 40520   0.276E-03    0.348E-03
DAV:  10    -0.896310981023E+03   -0.10868E-04   -0.11117E-06 40704   0.237E-03    0.242E-03
DAV:  11    -0.896310988356E+03   -0.73328E-05   -0.62946E-07 40480   0.179E-03
  11 F= -.91649701E+03 E0= -.91649679E+03  d E =-.267078E-01  mag=    24.0002
       N       E                     dE             d eps       ncg     rms          rms(c)
DAV:   1    -0.896319986249E+03   -0.90052E-02   -0.18738E+00 52200   0.187E+00    0.406E-01
DAV:   2    -0.896322886048E+03   -0.28998E-02   -0.40531E-02 61392   0.297E-01    0.241E-01
DAV:   3    -0.896322585708E+03    0.30034E-03   -0.16194E-03 65344   0.834E-02    0.126E-01
DAV:   4    -0.896322621960E+03   -0.36252E-04   -0.63382E-04 65368   0.742E-02    0.800E-02
DAV:   5    -0.896322626737E+03   -0.47772E-05   -0.24920E-04 58136   0.420E-02    0.306E-02
DAV:   6    -0.896322632596E+03   -0.58582E-05   -0.58132E-05 59144   0.191E-02
  12 F= -.91651015E+03 E0= -.91650994E+03  d E =-.131369E-01  mag=    24.0002
       N       E                     dE             d eps       ncg     rms          rms(c)
DAV:   1    -0.896322862917E+03   -0.23618E-03   -0.25760E-01 52384   0.695E-01    0.151E-01
DAV:   2    -0.896323279699E+03   -0.41678E-03   -0.55909E-03 61168   0.110E-01    0.908E-02
DAV:   3    -0.896323246245E+03    0.33454E-04   -0.23100E-04 64960   0.335E-02    0.474E-02
DAV:   4    -0.896323256311E+03   -0.10065E-04   -0.96860E-05 63432   0.305E-02    0.308E-02
DAV:   5    -0.896323258626E+03   -0.23153E-05   -0.37734E-05 54176   0.165E-02    0.118E-02
DAV:   6    -0.896323261505E+03   -0.28784E-05   -0.73052E-06 39848   0.774E-03
  13 F= -.91651132E+03 E0= -.91651111E+03  d E =-.143096E-01  mag=    24.0002
       N       E                     dE             d eps       ncg     rms          rms(c)
DAV:   1    -0.896328872436E+03   -0.56138E-02   -0.65022E-01 51656   0.108E+00    0.283E-01
DAV:   2    -0.896329802245E+03   -0.92981E-03   -0.14437E-02 67352   0.223E-01    0.157E-01
DAV:   3    -0.896329730083E+03    0.72162E-04   -0.10180E-03 65144   0.693E-02    0.987E-02
DAV:   4    -0.896329712607E+03    0.17475E-04   -0.18925E-04 69128   0.486E-02    0.563E-02
DAV:   5    -0.896329710378E+03    0.22292E-05   -0.72393E-05 57936   0.200E-02    0.215E-02
DAV:   6    -0.896329711664E+03   -0.12865E-05   -0.28558E-05 50576   0.157E-02
  14 F= -.91651729E+03 E0= -.91651708E+03  d E =-.596528E-02  mag=    24.0002
       N       E                     dE             d eps       ncg     rms          rms(c)
DAV:   1    -0.896330359016E+03   -0.64864E-03   -0.92886E-02 51820   0.409E-01    0.108E-01
DAV:   2    -0.896330495264E+03   -0.13625E-03   -0.20780E-03 66888   0.842E-02    0.597E-02
DAV:   3    -0.896330488336E+03    0.69278E-05   -0.14555E-04 61544   0.276E-02    0.377E-02
DAV:   4    -0.896330488438E+03   -0.10229E-06   -0.24647E-05 49800   0.184E-02    0.218E-02
DAV:   5    -0.896330492759E+03   -0.43211E-05   -0.16218E-05 42792   0.926E-03    0.900E-03
DAV:   6    -0.896330496900E+03   -0.41405E-05   -0.53771E-06 39824   0.578E-03
  15 F= -.91651789E+03 E0= -.91651769E+03  d E =-.656618E-02  mag=    24.0002
       N       E                     dE             d eps       ncg     rms          rms(c)
DAV:   1    -0.896331969985E+03   -0.14772E-02   -0.11516E+00 52040   0.161E+00    0.334E-01
DAV:   2    -0.896333930143E+03   -0.19602E-02   -0.25075E-02 59696   0.271E-01    0.180E-01
DAV:   3    -0.896333835088E+03    0.95055E-04   -0.13129E-03 63288   0.721E-02    0.963E-02
DAV:   4    -0.896333830336E+03    0.47525E-05   -0.31697E-04 66232   0.535E-02    0.608E-02
DAV:   5    -0.896333831900E+03   -0.15643E-05   -0.12882E-04 63520   0.320E-02    0.242E-02
DAV:   6    -0.896333834651E+03   -0.27513E-05   -0.47060E-05 56888   0.180E-02
  16 F= -.91652212E+03 E0= -.91652193E+03  d E =-.423355E-02  mag=    24.0002
       N       E                     dE             d eps       ncg     rms          rms(c)
DAV:   1    -0.896333744179E+03    0.87721E-04   -0.28593E-02 53016   0.254E-01    0.544E-02
DAV:   2    -0.896333799922E+03   -0.55743E-04   -0.63550E-04 60608   0.432E-02    0.296E-02
DAV:   3    -0.896333802179E+03   -0.22575E-05   -0.34842E-05 55888   0.139E-02    0.167E-02
DAV:   4    -0.896333806089E+03   -0.39091E-05   -0.94029E-06 41584   0.110E-02    0.116E-02
DAV:   5    -0.896333809697E+03   -0.36081E-05   -0.54093E-06 40424   0.675E-03    0.451E-03
DAV:   6    -0.896333812637E+03   -0.29405E-05   -0.20528E-06 39200   0.320E-03
  17 F= -.91652224E+03 E0= -.91652205E+03  d E =-.435126E-02  mag=    24.0002
       N       E                     dE             d eps       ncg     rms          rms(c)
DAV:   1    -0.896334154151E+03   -0.34445E-03   -0.49461E-01 51658   0.106E+00    0.214E-01
DAV:   2    -0.896334831034E+03   -0.67688E-03   -0.98710E-03 62104   0.168E-01    0.112E-01
DAV:   3    -0.896334764472E+03    0.66562E-04   -0.58017E-04 68446   0.525E-02    0.602E-02
DAV:   4    -0.896334756493E+03    0.79793E-05   -0.18354E-04 69560   0.481E-02    0.410E-02
DAV:   5    -0.896334756860E+03   -0.36751E-06   -0.78309E-05 66254   0.255E-02    0.177E-02
DAV:   6    -0.896334758456E+03   -0.15958E-05   -0.33623E-05 52104   0.135E-02
  18 F= -.91652367E+03 E0= -.91652347E+03  d E =-.142654E-02  mag=    24.0002
       N       E                     dE             d eps       ncg     rms          rms(c)
DAV:   1    -0.896334786159E+03   -0.29299E-04   -0.12127E-03 54448   0.537E-02    0.116E-02
DAV:   2    -0.896334788145E+03   -0.19858E-05   -0.23902E-05 47744   0.932E-03    0.804E-03
DAV:   3    -0.896334788764E+03   -0.61969E-06   -0.28057E-06 37768   0.454E-03    0.525E-03
DAV:   4    -0.896334789696E+03   -0.93109E-06   -0.11286E-06 38240   0.348E-03    0.324E-03
DAV:   5    -0.896334790822E+03   -0.11262E-05   -0.58643E-07 38728   0.236E-03    0.200E-03
DAV:   6    -0.896334791376E+03   -0.55420E-06   -0.28470E-07 37152   0.130E-03
  19 F= -.91652368E+03 E0= -.91652348E+03  d E =-.143581E-02  mag=    24.0002
       N       E                     dE             d eps       ncg     rms          rms(c)
DAV:   1    -0.896335619111E+03   -0.82829E-03   -0.15886E-01 51732   0.583E-01    0.119E-01
DAV:   2    -0.896335812026E+03   -0.19291E-03   -0.30242E-03 60504   0.868E-02    0.627E-02
DAV:   3    -0.896335796553E+03    0.15472E-04   -0.16197E-04 61088   0.229E-02    0.346E-02
DAV:   4    -0.896335794734E+03    0.18197E-05   -0.43000E-05 55184   0.144E-02    0.200E-02
DAV:   5    -0.896335796157E+03   -0.14235E-05   -0.13807E-05 40552   0.119E-02    0.108E-02
DAV:   6    -0.896335796492E+03   -0.33442E-06   -0.31571E-06 36808   0.748E-03
  20 F= -.91652423E+03 E0= -.91652404E+03  d E =-.558754E-03  mag=    24.0002
       N       E                     dE             d eps       ncg     rms          rms(c)
DAV:   1    -0.896335929546E+03   -0.13339E-03   -0.15365E-02 52180   0.181E-01    0.378E-02
DAV:   2    -0.896335949119E+03   -0.19573E-04   -0.29586E-04 59320   0.266E-02    0.194E-02
DAV:   3    -0.896335948248E+03    0.87057E-06   -0.13383E-05 40240   0.740E-03    0.110E-02
DAV:   4    -0.896335948630E+03   -0.38200E-06   -0.45574E-06 35984   0.606E-03    0.781E-03
DAV:   5    -0.896335949187E+03   -0.55661E-06   -0.28234E-06 35680   0.489E-03    0.399E-03
DAV:   6    -0.896335949618E+03   -0.43114E-06   -0.89749E-07 36008   0.299E-03
  21 F= -.91652425E+03 E0= -.91652405E+03  d E =-.572564E-03  mag=    24.0002
       N       E                     dE             d eps       ncg     rms          rms(c)
DAV:   1    -0.896335902711E+03    0.46476E-04   -0.96830E-02 51668   0.482E-01    0.100E-01
DAV:   2    -0.896336031288E+03   -0.12858E-03   -0.19599E-03 65496   0.102E-01    0.516E-02
DAV:   3    -0.896336029795E+03    0.14939E-05   -0.15889E-04 64296   0.305E-02    0.361E-02
DAV:   4    -0.896336029266E+03    0.52876E-06   -0.15345E-05 41856   0.183E-02    0.199E-02
DAV:   5    -0.896336029463E+03   -0.19729E-06   -0.12592E-05 37672   0.840E-03    0.827E-03
DAV:   6    -0.896336030305E+03   -0.84197E-06   -0.10196E-05 38656   0.971E-03
  22 F= -.91652466E+03 E0= -.91652447E+03  d E =-.415541E-03  mag=    24.0002
       N       E                     dE             d eps       ncg     rms          rms(c)
DAV:   1    -0.896335827542E+03    0.20192E-03   -0.25347E-02 51968   0.247E-01    0.527E-02
DAV:   2    -0.896335861110E+03   -0.33568E-04   -0.51323E-04 65672   0.550E-02    0.272E-02
DAV:   3    -0.896335861493E+03   -0.38330E-06   -0.44069E-05 53824   0.170E-02    0.195E-02
DAV:   4    -0.896335861520E+03   -0.26645E-07   -0.46967E-06 36336   0.922E-03    0.101E-02
DAV:   5    -0.896335861781E+03   -0.26045E-06   -0.38314E-06 36040   0.481E-03    0.468E-03
DAV:   6    -0.896335862249E+03   -0.46870E-06   -0.28479E-06 36040   0.403E-03
  23 F= -.91652467E+03 E0= -.91652447E+03  d E =-.418128E-03  mag=    24.0002
       N       E                     dE             d eps       ncg     rms          rms(c)
DAV:   1    -0.896335946767E+03   -0.84987E-04   -0.41204E-03 52620   0.994E-02    0.204E-02
DAV:   2    -0.896335952349E+03   -0.55812E-05   -0.81518E-05 56944   0.200E-02    0.108E-02
DAV:   3    -0.896335952308E+03    0.40760E-07   -0.63557E-06 36424   0.680E-03    0.793E-03
DAV:   4    -0.896335952551E+03   -0.24300E-06   -0.17698E-06 34528   0.565E-03    0.416E-03
DAV:   5    -0.896335953005E+03   -0.45433E-06   -0.15282E-06 35800   0.230E-03    0.315E-03
DAV:   6    -0.896335953271E+03   -0.26608E-06   -0.35858E-07 34384   0.162E-03
  24 F= -.91652469E+03 E0= -.91652450E+03  d E =-.440508E-03  mag=    24.0002
       N       E                     dE             d eps       ncg     rms          rms(c)
DAV:   1    -0.896335953681E+03   -0.67604E-06   -0.41968E-02 51700   0.322E-01    0.694E-02
DAV:   2    -0.896336018132E+03   -0.64451E-04   -0.96928E-04 59728   0.571E-02    0.412E-02
DAV:   3    -0.896336013625E+03    0.45078E-05   -0.60541E-05 61504   0.180E-02    0.214E-02
DAV:   4    -0.896336013702E+03   -0.77256E-07   -0.12452E-05 39312   0.142E-02    0.140E-02
DAV:   5    -0.896336013961E+03   -0.25905E-06   -0.82822E-06 36112   0.791E-03    0.680E-03
DAV:   6    -0.896336014079E+03   -0.11770E-06   -0.26248E-06 34592   0.445E-03
  25 F= -.91652489E+03 E0= -.91652470E+03  d E =-.199643E-03  mag=    24.0002
       N       E                     dE             d eps       ncg     rms          rms(c)
DAV:   1    -0.896335999832E+03    0.14129E-04   -0.54488E-04 53496   0.370E-02    0.910E-03
DAV:   2    -0.896336000785E+03   -0.95381E-06   -0.12096E-05 41488   0.766E-03    0.536E-03
DAV:   3    -0.896336000794E+03   -0.82946E-08   -0.16657E-06 33288   0.348E-03    0.416E-03
DAV:   4    -0.896336000860E+03   -0.66706E-07   -0.41157E-07 34088   0.262E-03    0.210E-03
DAV:   5    -0.896336000991E+03   -0.13095E-06   -0.20763E-07 34414   0.133E-03    0.160E-03
DAV:   6    -0.896336001067E+03   -0.75786E-07   -0.13980E-07 34768   0.991E-04
  26 F= -.91652489E+03 E0= -.91652470E+03  d E =-.202384E-03  mag=    24.0002
       N       E                     dE             d eps       ncg     rms          rms(c)
DAV:   1    -0.896335841124E+03    0.15987E-03   -0.18969E-02 51710   0.216E-01    0.461E-02
DAV:   2    -0.896335868014E+03   -0.26890E-04   -0.41422E-04 60328   0.346E-02    0.257E-02
DAV:   3    -0.896335866790E+03    0.12233E-05   -0.17754E-05 40216   0.101E-02    0.149E-02
DAV:   4    -0.896335866466E+03    0.32410E-06   -0.73405E-06 35984   0.996E-03    0.101E-02
DAV:   5    -0.896335866822E+03   -0.35594E-06   -0.64104E-06 35128   0.770E-03    0.619E-03
DAV:   6    -0.896335866918E+03   -0.95664E-07   -0.19407E-06 33208   0.392E-03
  27 F= -.91652499E+03 E0= -.91652480E+03  d E =-.100002E-03  mag=    24.0002
       N       E                     dE             d eps       ncg     rms          rms(c)
DAV:   1    -0.896335845479E+03    0.21344E-04   -0.16988E-04 51096   0.207E-02    0.569E-03
DAV:   2    -0.896335845843E+03   -0.36384E-06   -0.38389E-06 33632   0.443E-03    0.332E-03
DAV:   3    -0.896335845988E+03   -0.14520E-06   -0.10413E-06 33056   0.253E-03    0.297E-03
DAV:   4    -0.896335846073E+03   -0.85143E-07   -0.25935E-07 32544   0.218E-03    0.170E-03
DAV:   5    -0.896335846202E+03   -0.12877E-06   -0.10114E-07 34352   0.946E-04    0.143E-03
DAV:   6    -0.896335846308E+03   -0.10610E-06   -0.73451E-08 33320   0.496E-04
  28 F= -.91652499E+03 E0= -.91652480E+03  d E =-.101594E-03  mag=    24.0002
       N       E                     dE             d eps       ncg     rms          rms(c)
DAV:   1    -0.896336012434E+03   -0.16623E-03   -0.16081E-02 51696   0.203E-01    0.467E-02
DAV:   2    -0.896336035150E+03   -0.22715E-04   -0.35890E-04 67168   0.449E-02    0.233E-02
DAV:   3    -0.896336034463E+03    0.68620E-06   -0.25325E-05 44976   0.154E-02    0.192E-02
DAV:   4    -0.896336034172E+03    0.29089E-06   -0.54148E-06 36648   0.932E-03    0.928E-03
DAV:   5    -0.896336034641E+03   -0.46825E-06   -0.58043E-06 35400   0.415E-03    0.478E-03
DAV:   6    -0.896336035074E+03   -0.43369E-06   -0.12488E-06 34496   0.294E-03
  29 F= -.91652509E+03 E0= -.91652489E+03  d E =-.928631E-04  mag=    24.0002
       N       E                     dE             d eps       ncg     rms          rms(c)
DAV:   1    -0.896336074706E+03   -0.40065E-04   -0.23879E-03 53364   0.783E-02    0.189E-02
DAV:   2    -0.896336077751E+03   -0.30445E-05   -0.49414E-05 51440   0.177E-02    0.932E-03
DAV:   3    -0.896336078053E+03   -0.30245E-06   -0.65704E-06 32984   0.796E-03    0.978E-03
DAV:   4    -0.896336078135E+03   -0.81549E-07   -0.16304E-06 33280   0.455E-03    0.399E-03
DAV:   5    -0.896336078383E+03   -0.24876E-06   -0.14385E-06 33376   0.246E-03    0.446E-03
DAV:   6    -0.896336078513E+03   -0.12921E-06   -0.46649E-07 33792   0.305E-03
  30 F= -.91652509E+03 E0= -.91652490E+03  d E =-.992582E-04  mag=    24.0002
       N       E                     dE             d eps       ncg     rms          rms(c)
DAV:   1    -0.896336084247E+03   -0.58638E-05   -0.59528E-03 51808   0.127E-01    0.296E-02
DAV:   2    -0.896336095205E+03   -0.10958E-04   -0.15289E-04 55816   0.217E-02    0.147E-02
DAV:   3    -0.896336094733E+03    0.47250E-06   -0.59824E-06 35656   0.778E-03    0.880E-03
DAV:   4    -0.896336094800E+03   -0.67303E-07   -0.24225E-06 33224   0.655E-03    0.556E-03
DAV:   5    -0.896336094981E+03   -0.18104E-06   -0.16835E-06 32968   0.328E-03    0.329E-03
DAV:   6    -0.896336095074E+03   -0.92798E-07   -0.55878E-07 32800   0.206E-03
  31 F= -.91652510E+03 E0= -.91652491E+03  d E =-.910188E-05  mag=    24.0002
       N       E                     dE             d eps       ncg     rms          rms(c)
DAV:   1    -0.896336097190E+03   -0.22093E-05   -0.31573E-04 52768   0.293E-02    0.661E-03
DAV:   2    -0.896336097765E+03   -0.57452E-06   -0.71576E-06 36648   0.483E-03    0.358E-03
DAV:   3    -0.896336097764E+03    0.58208E-09   -0.95773E-07 33584   0.303E-03    0.290E-03
DAV:   4    -0.896336097763E+03    0.10332E-08   -0.23825E-07 32856   0.220E-03    0.163E-03
DAV:   5    -0.896336097770E+03   -0.66939E-08   -0.14281E-07 33912   0.705E-04    0.135E-03
DAV:   6    -0.896336097776E+03   -0.57626E-08   -0.47581E-08 32488   0.763E-04
  32 F= -.91652511E+03 E0= -.91652491E+03  d E =-.135253E-04  mag=    24.0002
       N       E                     dE             d eps       ncg     rms          rms(c)
DAV:   1    -0.896336057528E+03    0.40242E-04   -0.27642E-03 51836   0.878E-02    0.178E-02
DAV:   2    -0.896336062805E+03   -0.52766E-05   -0.73418E-05 55064   0.178E-02    0.963E-03
DAV:   3    -0.896336062724E+03    0.80880E-07   -0.48226E-06 34904   0.573E-03    0.677E-03
DAV:   4    -0.896336062702E+03    0.21377E-07   -0.11995E-06 32480   0.488E-03    0.379E-03
DAV:   5    -0.896336062718E+03   -0.16080E-07   -0.79502E-07 33072   0.217E-03    0.269E-03
DAV:   6    -0.896336062740E+03   -0.21755E-07   -0.28984E-07 31712   0.125E-03
  33 F= -.91652513E+03 E0= -.91652493E+03  d E =-.194926E-04  mag=    24.0002
       N       E                     dE             d eps       ncg     rms          rms(c)
DAV:   1    -0.896336050466E+03    0.12253E-04   -0.16487E-04 49632   0.215E-02    0.467E-03
DAV:   2    -0.896336050715E+03   -0.24882E-06   -0.39664E-06 32136   0.466E-03    0.279E-03
DAV:   3    -0.896336050762E+03   -0.47570E-07   -0.80173E-07 28040   0.253E-03    0.276E-03
DAV:   4    -0.896336050772E+03   -0.10026E-07   -0.19487E-07 28234   0.169E-03    0.143E-03
DAV:   5    -0.896336050783E+03   -0.11365E-07   -0.10953E-07 30402   0.710E-04    0.148E-03
DAV:   6    -0.896336050796E+03   -0.12209E-07   -0.38509E-08 28514   0.541E-04
  34 F= -.91652513E+03 E0= -.91652493E+03  d E =-.208588E-04  mag=    24.0002
       N       E                     dE             d eps       ncg     rms          rms(c)
DAV:   1    -0.896336058183E+03   -0.73997E-05   -0.44125E-04 51348   0.353E-02    0.131E-02
DAV:   2    -0.896336059034E+03   -0.85113E-06   -0.15491E-05 38408   0.811E-03    0.723E-03
DAV:   3    -0.896336059043E+03   -0.82509E-08   -0.36986E-06 32904   0.654E-03    0.699E-03
DAV:   4    -0.896336058984E+03    0.58484E-07   -0.81945E-07 30168   0.413E-03    0.233E-03
DAV:   5    -0.896336059017E+03   -0.32975E-07   -0.65716E-07 32256   0.128E-03    0.181E-03
DAV:   6    -0.896336059044E+03   -0.26615E-07   -0.21504E-07 28928   0.160E-03
  35 F= -.91652514E+03 E0= -.91652495E+03  d E =-.112890E-04  mag=    24.0002
       N       E                     dE             d eps       ncg     rms          rms(c)
DAV:   1    -0.896336058944E+03    0.72745E-07   -0.11448E-06 27738   0.193E-03    0.152E-03
DAV:   2    -0.896336058956E+03   -0.12122E-07   -0.11977E-07 28482   0.101E-03    0.153E-03
DAV:   3    -0.896336058963E+03   -0.62864E-08   -0.45020E-08 26994   0.730E-04    0.127E-03
DAV:   4    -0.896336058963E+03   -0.40745E-09   -0.20455E-08 27246   0.309E-04    0.121E-03
DAV:   5    -0.896336058967E+03   -0.34051E-08   -0.12275E-08 28334   0.361E-04    0.119E-03
DAV:   6    -0.896336058975E+03   -0.86438E-08   -0.59402E-09 29008   0.184E-04
  36 F= -.91652514E+03 E0= -.91652495E+03  d E =-.113732E-04  mag=    24.0002
       N       E                     dE             d eps       ncg     rms          rms(c)
DAV:   1    -0.896336076133E+03   -0.17167E-04   -0.41345E-04 50936   0.334E-02    0.120E-02
DAV:   2    -0.896336076809E+03   -0.67595E-06   -0.12857E-05 34440   0.716E-03    0.674E-03
DAV:   3    -0.896336076750E+03    0.59576E-07   -0.30732E-06 32736   0.561E-03    0.564E-03
DAV:   4    -0.896336076697E+03    0.53173E-07   -0.74285E-07 29024   0.412E-03    0.241E-03
DAV:   5    -0.896336076712E+03   -0.15585E-07   -0.55944E-07 31512   0.126E-03    0.180E-03
DAV:   6    -0.896336076728E+03   -0.16094E-07   -0.19119E-07 28144   0.154E-03
  37 F= -.91652514E+03 E0= -.91652495E+03  d E =-.569472E-05  mag=    24.0002
       N       E                     dE             d eps       ncg     rms          rms(c)
DAV:   1    -0.896336074508E+03    0.22043E-05   -0.49968E-05 50844   0.117E-02    0.414E-03
DAV:   2    -0.896336074611E+03   -0.10265E-06   -0.16308E-06 32664   0.234E-03    0.249E-03
DAV:   3    -0.896336074662E+03   -0.51441E-07   -0.23951E-07 31664   0.155E-03    0.183E-03
DAV:   4    -0.896336074679E+03   -0.17288E-07   -0.10988E-07 28620   0.107E-03    0.141E-03
DAV:   5    -0.896336074684E+03   -0.48603E-08   -0.37260E-08 29666   0.603E-04    0.119E-03
DAV:   6    -0.896336074689E+03   -0.47003E-08   -0.20410E-08 27308   0.347E-04
  38 F= -.91652515E+03 E0= -.91652495E+03  d E =-.786254E-05  mag=    24.0002
       N       E                     dE             d eps       ncg     rms          rms(c)
DAV:   1    -0.896336110419E+03   -0.35734E-04   -0.19384E-04 49328   0.225E-02    0.670E-03
DAV:   2    -0.896336110621E+03   -0.20264E-06   -0.42817E-06 33080   0.470E-03    0.450E-03
DAV:   3    -0.896336110604E+03    0.17521E-07   -0.14011E-06 31492   0.305E-03    0.332E-03
DAV:   4    -0.896336110574E+03    0.29861E-07   -0.35137E-07 28078   0.315E-03    0.206E-03
DAV:   5    -0.896336110574E+03   -0.43656E-09   -0.23618E-07 29646   0.811E-04    0.145E-03
DAV:   6    -0.896336110579E+03   -0.50786E-08   -0.69698E-08 27174   0.111E-03
  39 F= -.91652515E+03 E0= -.91652496E+03  d E =-.682035E-05  mag=    24.0002
       N       E                     dE             d eps       ncg     rms          rms(c)
DAV:   1    -0.896336122306E+03   -0.11732E-04   -0.29207E-05 44260   0.873E-03    0.278E-03
DAV:   2    -0.896336122350E+03   -0.43729E-07   -0.75233E-07 28000   0.228E-03    0.216E-03
DAV:   3    -0.896336122337E+03    0.12587E-07   -0.26715E-07 26608   0.145E-03    0.177E-03
DAV:   4    -0.896336122320E+03    0.17331E-07   -0.71672E-08 26480   0.124E-03    0.137E-03
DAV:   5    -0.896336122314E+03    0.53114E-08   -0.59852E-08 26886   0.382E-04    0.119E-03
DAV:   6    -0.896336122317E+03   -0.30122E-08   -0.13800E-08 27638   0.388E-04
  40 F= -.91652515E+03 E0= -.91652496E+03  d E =-.727322E-05  mag=    24.0002
       N       E                     dE             d eps       ncg     rms          rms(c)
DAV:   1    -0.896336131493E+03   -0.91785E-05   -0.47753E-05 48444   0.111E-02    0.354E-03
DAV:   2    -0.896336131586E+03   -0.93583E-07   -0.12419E-06 27448   0.229E-03    0.229E-03
DAV:   3    -0.896336131571E+03    0.15018E-07   -0.31069E-07 26998   0.197E-03    0.223E-03
DAV:   4    -0.896336131561E+03    0.10798E-07   -0.66215E-08 26352   0.107E-03    0.128E-03
DAV:   5    -0.896336131549E+03    0.11118E-07   -0.49088E-08 27332   0.376E-04    0.121E-03
DAV:   6    -0.896336131551E+03   -0.12224E-08   -0.16994E-08 26428   0.420E-04
  41 F= -.91652516E+03 E0= -.91652497E+03  d E =-.489363E-05  mag=    24.0002
       N       E                     dE             d eps       ncg     rms          rms(c)
DAV:   1    -0.896336144819E+03   -0.13270E-04   -0.42961E-04 50432   0.332E-02    0.107E-02
DAV:   2    -0.896336145543E+03   -0.72399E-06   -0.10799E-05 33776   0.694E-03    0.570E-03
DAV:   3    -0.896336145573E+03   -0.29817E-07   -0.27580E-06 31928   0.613E-03    0.611E-03
DAV:   4    -0.896336145545E+03    0.27707E-07   -0.59952E-07 28322   0.302E-03    0.225E-03
DAV:   5    -0.896336145540E+03    0.51805E-08   -0.43583E-07 30528   0.111E-03    0.179E-03
DAV:   6    -0.896336145545E+03   -0.45693E-08   -0.14462E-07 27182   0.123E-03
  42 F= -.91652516E+03 E0= -.91652497E+03  d E =-.585383E-05  mag=    24.0002
       N       E                     dE             d eps       ncg     rms          rms(c)
DAV:   1    -0.896336143000E+03    0.25403E-05   -0.80540E-05 50044   0.144E-02    0.457E-03
DAV:   2    -0.896336143148E+03   -0.14850E-06   -0.20965E-06 32576   0.272E-03    0.254E-03
DAV:   3    -0.896336143198E+03   -0.50102E-07   -0.42453E-07 32102   0.234E-03    0.240E-03
DAV:   4    -0.896336143207E+03   -0.82946E-08   -0.99476E-08 27260   0.140E-03    0.130E-03
DAV:   5    -0.896336143223E+03   -0.16458E-07   -0.57466E-08 31496   0.487E-04    0.119E-03
DAV:   6    -0.896336143231E+03   -0.78871E-08   -0.31097E-08 26786   0.592E-04
  43 F= -.91652516E+03 E0= -.91652497E+03  d E =-.920249E-05  mag=    24.0002
       N       E                     dE             d eps       ncg     rms          rms(c)
DAV:   1    -0.896336138626E+03    0.45970E-05   -0.27092E-05 41236   0.831E-03    0.297E-03
DAV:   2    -0.896336138673E+03   -0.46450E-07   -0.70594E-07 29640   0.266E-03    0.201E-03
DAV:   3    -0.896336138683E+03   -0.10885E-07   -0.31890E-07 27150   0.150E-03    0.212E-03
DAV:   4    -0.896336138682E+03    0.11642E-08   -0.69844E-08 26538   0.116E-03    0.123E-03
DAV:   5    -0.896336138677E+03    0.56898E-08   -0.51956E-08 26220   0.363E-04    0.127E-03
DAV:   6    -0.896336138674E+03    0.29249E-08   -0.12619E-08 26090   0.305E-04
  44 F= -.91652516E+03 E0= -.91652497E+03  d E =-.218388E-05  mag=    24.0002
       N       E                     dE             d eps       ncg     rms          rms(c)
DAV:   1    -0.896336137028E+03    0.16482E-05   -0.19280E-06 26258   0.225E-03    0.140E-03
DAV:   2    -0.896336137037E+03   -0.85565E-08   -0.98398E-08 26418   0.107E-03    0.134E-03
DAV:   3    -0.896336137038E+03   -0.14261E-08   -0.39238E-08 26060   0.606E-04    0.122E-03
DAV:   4    -0.896336137042E+03   -0.37398E-08   -0.97373E-09 26110   0.376E-04    0.114E-03
DAV:   5    -0.896336137043E+03   -0.11933E-08   -0.91133E-09 26184   0.222E-04    0.116E-03
DAV:   6    -0.896336137044E+03   -0.93132E-09   -0.25803E-09 26224   0.146E-04
  45 F= -.91652516E+03 E0= -.91652497E+03  d E =-.237002E-05  mag=    24.0002
       N       E                     dE             d eps       ncg     rms          rms(c)
DAV:   1    -0.896336139894E+03   -0.28511E-05   -0.14891E-05 28666   0.616E-03    0.244E-03
DAV:   2    -0.896336139963E+03   -0.68307E-07   -0.76297E-07 26516   0.205E-03    0.196E-03
DAV:   3    -0.896336139985E+03   -0.22774E-07   -0.25135E-07 25974   0.152E-03    0.184E-03
DAV:   4    -0.896336139997E+03   -0.11278E-07   -0.48911E-08 26020   0.922E-04    0.121E-03
DAV:   5    -0.896336139999E+03   -0.26630E-08   -0.46143E-08 25986   0.336E-04    0.123E-03
DAV:   6    -0.896336140000E+03   -0.75670E-09   -0.12979E-08 25956   0.319E-04
  46 F= -.91652517E+03 E0= -.91652497E+03  d E =-.153826E-05  mag=    24.0002
