<?xml version="1.0" encoding="ISO-8859-1"?>
<modeling>
 <generator>
  <i name="program" type="string">vasp </i>
  <i name="version" type="string">6.1.2  </i>
  <i name="subversion" type="string">22Jul20 (build Aug 13 2020 05:42:33) complex                          parallel </i>
  <i name="platform" type="string">LinuxIFC </i>
  <i name="date" type="string">2024 09 22 </i>
  <i name="time" type="string">21:34:09 </i>
 </generator>
 <incar>
  <i type="int" name="ISTART">     1</i>
  <i type="string" name="PREC">  Normal       (Precision level)</i>
  <i type="logical" name="ADDGRID"> T  </i>
  <i type="int" name="ISPIN">     2</i>
  <i type="int" name="NELM">    60</i>
  <i type="int" name="NELMIN">     6</i>
  <i type="int" name="IBRION">     2</i>
  <i name="EDIFF">      0.00001000</i>
  <i name="EDIFFG">     -0.02000000</i>
  <i type="int" name="NSW">   100</i>
  <i type="int" name="ISIF">     2</i>
  <i type="int" name="ISYM">     2</i>
  <i name="ENCUT">    520.00000000</i>
  <i type="string" name="LREAL"> Auto          (Projection operators: au</i>
  <i type="int" name="ISMEAR">     0</i>
  <i name="SIGMA">      0.05000000</i>
  <i type="int" name="LMAXMIX">     4</i>
  <i type="logical" name="LWAVE"> T  </i>
  <i type="logical" name="LCHARG"> T  </i>
  <i type="int" name="KPAR">     1</i>
  <i type="int" name="NPAR">     2</i>
  <i type="int" name="NELM">    60</i>
  <i type="logical" name="LDAU"> T  </i>
  <v type="int" name="LDAUL">     2    -1    -1     2    -1    -1    -1</v>
  <v name="LDAUU">      3.50000000      0.00000000      0.00000000      4.60000000      0.00000000      0.00000000      0.00000000</v>
  <v name="LDAUJ">      0.00000000      0.00000000      0.00000000      0.00000000      0.00000000      0.00000000      0.00000000</v>
  <i name="EDIFF">      0.00001000</i>
  <i type="int" name="IVDW">    11</i>
  <i type="int" name="ISPIN">     2</i>
 </incar>
 <structure name="primitive_cell" >
  <crystal>
   <varray name="basis" >
    <v>      10.15022300       0.00000000       0.00000000 </v>
    <v>      -5.07509751       8.79036713       0.00000000 </v>
    <v>       0.00000000      -0.00005351      34.93840000 </v>
   </varray>
   <i name="volume">   3117.35032185 </i>
   <varray name="rec_basis" >
    <v>       0.09852000       0.05688029       0.00000009 </v>
    <v>       0.00000000       0.11376089       0.00000017 </v>
    <v>       0.00000000       0.00000000       0.02862180 </v>
   </varray>
  </crystal>
  <varray name="positions" >
   <v>       0.16662700       0.00000300       0.60990800 </v>
   <v>       0.16662700       0.50000300       0.60990800 </v>
   <v>       0.66662700       0.00000300       0.60990800 </v>
   <v>       0.66662700       0.50000300       0.60990800 </v>
   <v>       0.33337600       0.33337300       0.60990800 </v>
   <v>       0.33337600       0.83337300       0.60990800 </v>
   <v>       0.83337600       0.33337300       0.60990800 </v>
   <v>       0.83337600       0.83337300       0.60990800 </v>
   <v>       0.99999700       0.16662400       0.60990800 </v>
   <v>       0.99999700       0.66662400       0.60990800 </v>
   <v>       0.49999700       0.16662400       0.60990800 </v>
   <v>       0.49999700       0.66662400       0.60990800 </v>
   <v>       0.16705400       0.16709400       0.57396600 </v>
   <v>       0.16705400       0.66709400       0.57396600 </v>
   <v>       0.66705400       0.16709400       0.57396600 </v>
   <v>       0.66705400       0.66709400       0.57396600 </v>
   <v>       0.16671500       0.16671900       0.64584600 </v>
   <v>       0.16671500       0.66671900       0.64584600 </v>
   <v>       0.66671500       0.16671900       0.64584600 </v>
   <v>       0.66671500       0.66671900       0.64584600 </v>
   <v>       0.16664500       0.00000200       0.71070500 </v>
   <v>       0.16664500       0.50000200       0.71070500 </v>
   <v>       0.66664500       0.00000200       0.71070500 </v>
   <v>       0.66664500       0.50000200       0.71070500 </v>
   <v>       0.16579400       0.00011400       0.50939600 </v>
   <v>       0.16579400       0.50011400       0.50939600 </v>
   <v>       0.66579400       0.00011400       0.50939600 </v>
   <v>       0.66579400       0.50011400       0.50939600 </v>
   <v>       0.33290600       0.99996000       0.57396600 </v>
   <v>       0.33290600       0.49996000       0.57396600 </v>
   <v>       0.83290600       0.99996000       0.57396600 </v>
   <v>       0.83290600       0.49996000       0.57396600 </v>
   <v>       0.33328100       0.99999500       0.64584600 </v>
   <v>       0.33328100       0.49999500       0.64584600 </v>
   <v>       0.83328100       0.99999500       0.64584600 </v>
   <v>       0.83328100       0.49999500       0.64584600 </v>
   <v>       0.33335700       0.33335500       0.71070500 </v>
   <v>       0.33335700       0.83335500       0.71070500 </v>
   <v>       0.83335700       0.33335500       0.71070500 </v>
   <v>       0.83335700       0.83335500       0.71070500 </v>
   <v>       0.33432000       0.33420600       0.50939600 </v>
   <v>       0.33432000       0.83420600       0.50939600 </v>
   <v>       0.83432000       0.33420600       0.50939600 </v>
   <v>       0.83432000       0.83420600       0.50939600 </v>
   <v>       0.00004000       0.33294600       0.57396600 </v>
   <v>       0.00004000       0.83294600       0.57396600 </v>
   <v>       0.50004000       0.33294600       0.57396600 </v>
   <v>       0.50004000       0.83294600       0.57396600 </v>
   <v>       0.00000500       0.33328500       0.64584600 </v>
   <v>       0.00000500       0.83328500       0.64584600 </v>
   <v>       0.50000500       0.33328500       0.64584600 </v>
   <v>       0.50000500       0.83328500       0.64584600 </v>
   <v>       0.99999800       0.16664300       0.71070500 </v>
   <v>       0.99999800       0.66664300       0.71070500 </v>
   <v>       0.49999800       0.16664300       0.71070500 </v>
   <v>       0.49999800       0.66664300       0.71070500 </v>
   <v>       0.49988600       0.16568000       0.50939600 </v>
   <v>       0.49988600       0.66568000       0.50939600 </v>
   <v>       0.99988600       0.16568000       0.50939600 </v>
   <v>       0.99988600       0.66568000       0.50939600 </v>
   <v>       0.16665500       0.16665500       0.69612400 </v>
   <v>       0.16665500       0.66665500       0.69612400 </v>
   <v>       0.66665500       0.16665500       0.69612400 </v>
   <v>       0.66665500       0.66665500       0.69612400 </v>
   <v>       0.16734600       0.16737800       0.52372400 </v>
   <v>       0.16734600       0.66737800       0.52372400 </v>
   <v>       0.66734600       0.16737800       0.52372400 </v>
   <v>       0.66734600       0.66737800       0.52372400 </v>
   <v>       0.33334500       0.00000000       0.69612400 </v>
   <v>       0.33334500       0.50000000       0.69612400 </v>
   <v>       0.83334500       0.00000000       0.69612400 </v>
   <v>       0.83334500       0.50000000       0.69612400 </v>
   <v>       0.33262200       0.99996800       0.52372400 </v>
   <v>       0.33262200       0.49996800       0.52372400 </v>
   <v>       0.83262200       0.99996800       0.52372400 </v>
   <v>       0.83262200       0.49996800       0.52372400 </v>
   <v>       0.99999900       0.33334500       0.69612400 </v>
   <v>       0.99999900       0.83334500       0.69612400 </v>
   <v>       0.49999900       0.33334500       0.69612400 </v>
   <v>       0.49999900       0.83334500       0.69612400 </v>
   <v>       0.00003100       0.33265300       0.52372400 </v>
   <v>       0.00003100       0.83265300       0.52372400 </v>
   <v>       0.50003100       0.33265300       0.52372400 </v>
   <v>       0.50003100       0.83265300       0.52372400 </v>
   <v>       1.00000000       0.00000000       0.34945100 </v>
   <v>       0.00000000       0.50000000       0.34945100 </v>
   <v>       0.50000000       0.00000000       0.34945100 </v>
   <v>       0.50000000       0.50000000       0.34945100 </v>
   <v>       0.00000100       0.00000100       0.44108900 </v>
   <v>       0.00000100       0.50000100       0.44108900 </v>
   <v>       0.50000100       0.00000100       0.44108900 </v>
   <v>       0.50000100       0.50000100       0.44108900 </v>
   <v>       0.33333300       0.16666600       0.39481200 </v>
   <v>       0.33333300       0.66666600       0.39481200 </v>
   <v>       0.83333300       0.16666600       0.39481200 </v>
   <v>       0.83333300       0.66666600       0.39481200 </v>
   <v>       0.31846500       0.32466000       0.36219700 </v>
   <v>       0.31846500       0.82466000       0.36219700 </v>
   <v>       0.81846500       0.32466000       0.36219700 </v>
   <v>       0.81846500       0.82466000       0.36219700 </v>
   <v>       0.17534000       0.49380300       0.36219700 </v>
   <v>       0.17534000       0.99380300       0.36219700 </v>
   <v>       0.67534000       0.49380300       0.36219700 </v>
   <v>       0.67534000       0.99380300       0.36219700 </v>
   <v>       0.00619700       0.18153600       0.36219700 </v>
   <v>       0.00619700       0.68153600       0.36219700 </v>
   <v>       0.50619700       0.18153600       0.36219700 </v>
   <v>       0.50619700       0.68153600       0.36219700 </v>
   <v>       0.00625100       0.32480800       0.42718100 </v>
   <v>       0.00625100       0.82480800       0.42718100 </v>
   <v>       0.50625100       0.32480800       0.42718100 </v>
   <v>       0.50625100       0.82480800       0.42718100 </v>
   <v>       0.17519400       0.18144500       0.42718200 </v>
   <v>       0.17519400       0.68144500       0.42718200 </v>
   <v>       0.67519400       0.18144500       0.42718200 </v>
   <v>       0.67519400       0.68144500       0.42718200 </v>
   <v>       0.31855700       0.49374900       0.42718100 </v>
   <v>       0.31855700       0.99374900       0.42718100 </v>
   <v>       0.81855700       0.49374900       0.42718100 </v>
   <v>       0.81855700       0.99374900       0.42718100 </v>
   <v>       0.16666800       0.33333400       0.39464700 </v>
   <v>       0.16666800       0.83333400       0.39464700 </v>
   <v>       0.66666800       0.33333400       0.39464700 </v>
   <v>       0.66666800       0.83333400       0.39464700 </v>
   <v>       0.50637270       0.67156412       0.74815506 </v>
  </varray>
 </structure>
 <varray name="primitive_index" >
  <v type="int" >        1 </v>
  <v type="int" >        2 </v>
  <v type="int" >        3 </v>
  <v type="int" >        4 </v>
  <v type="int" >        5 </v>
  <v type="int" >        6 </v>
  <v type="int" >        7 </v>
  <v type="int" >        8 </v>
  <v type="int" >        9 </v>
  <v type="int" >       10 </v>
  <v type="int" >       11 </v>
  <v type="int" >       12 </v>
  <v type="int" >       13 </v>
  <v type="int" >       14 </v>
  <v type="int" >       15 </v>
  <v type="int" >       16 </v>
  <v type="int" >       17 </v>
  <v type="int" >       18 </v>
  <v type="int" >       19 </v>
  <v type="int" >       20 </v>
  <v type="int" >       21 </v>
  <v type="int" >       22 </v>
  <v type="int" >       23 </v>
  <v type="int" >       24 </v>
  <v type="int" >       25 </v>
  <v type="int" >       26 </v>
  <v type="int" >       27 </v>
  <v type="int" >       28 </v>
  <v type="int" >       29 </v>
  <v type="int" >       30 </v>
  <v type="int" >       31 </v>
  <v type="int" >       32 </v>
  <v type="int" >       33 </v>
  <v type="int" >       34 </v>
  <v type="int" >       35 </v>
  <v type="int" >       36 </v>
  <v type="int" >       37 </v>
  <v type="int" >       38 </v>
  <v type="int" >       39 </v>
  <v type="int" >       40 </v>
  <v type="int" >       41 </v>
  <v type="int" >       42 </v>
  <v type="int" >       43 </v>
  <v type="int" >       44 </v>
  <v type="int" >       45 </v>
  <v type="int" >       46 </v>
  <v type="int" >       47 </v>
  <v type="int" >       48 </v>
  <v type="int" >       49 </v>
  <v type="int" >       50 </v>
  <v type="int" >       51 </v>
  <v type="int" >       52 </v>
  <v type="int" >       53 </v>
  <v type="int" >       54 </v>
  <v type="int" >       55 </v>
  <v type="int" >       56 </v>
  <v type="int" >       57 </v>
  <v type="int" >       58 </v>
  <v type="int" >       59 </v>
  <v type="int" >       60 </v>
  <v type="int" >       61 </v>
  <v type="int" >       62 </v>
  <v type="int" >       63 </v>
  <v type="int" >       64 </v>
  <v type="int" >       65 </v>
  <v type="int" >       66 </v>
  <v type="int" >       67 </v>
  <v type="int" >       68 </v>
  <v type="int" >       69 </v>
  <v type="int" >       70 </v>
  <v type="int" >       71 </v>
  <v type="int" >       72 </v>
  <v type="int" >       73 </v>
  <v type="int" >       74 </v>
  <v type="int" >       75 </v>
  <v type="int" >       76 </v>
  <v type="int" >       77 </v>
  <v type="int" >       78 </v>
  <v type="int" >       79 </v>
  <v type="int" >       80 </v>
  <v type="int" >       81 </v>
  <v type="int" >       82 </v>
  <v type="int" >       83 </v>
  <v type="int" >       84 </v>
  <v type="int" >       85 </v>
  <v type="int" >       86 </v>
  <v type="int" >       87 </v>
  <v type="int" >       88 </v>
  <v type="int" >       89 </v>
  <v type="int" >       90 </v>
  <v type="int" >       91 </v>
  <v type="int" >       92 </v>
  <v type="int" >       93 </v>
  <v type="int" >       94 </v>
  <v type="int" >       95 </v>
  <v type="int" >       96 </v>
  <v type="int" >       97 </v>
  <v type="int" >       98 </v>
  <v type="int" >       99 </v>
  <v type="int" >      100 </v>
  <v type="int" >      101 </v>
  <v type="int" >      102 </v>
  <v type="int" >      103 </v>
  <v type="int" >      104 </v>
  <v type="int" >      105 </v>
  <v type="int" >      106 </v>
  <v type="int" >      107 </v>
  <v type="int" >      108 </v>
  <v type="int" >      109 </v>
  <v type="int" >      110 </v>
  <v type="int" >      111 </v>
  <v type="int" >      112 </v>
  <v type="int" >      113 </v>
  <v type="int" >      114 </v>
  <v type="int" >      115 </v>
  <v type="int" >      116 </v>
  <v type="int" >      117 </v>
  <v type="int" >      118 </v>
  <v type="int" >      119 </v>
  <v type="int" >      120 </v>
  <v type="int" >      121 </v>
  <v type="int" >      122 </v>
  <v type="int" >      123 </v>
  <v type="int" >      124 </v>
  <v type="int" >      125 </v>
 </varray>
 <kpoints>
  <generation param="Monkhorst-Pack">
   <v type="int" name="divisions">       4        4        1 </v>
   <v name="usershift">      0.00000000       0.00000000       0.00000000 </v>
   <v name="genvec1">      0.25000000       0.00000000      -0.00000000 </v>
   <v name="genvec2">      0.00000000       0.25000000       0.00000000 </v>
   <v name="genvec3">      0.00000000       0.00000000       1.00000000 </v>
   <v name="shift">      0.50000000       0.50000000       0.00000000 </v>
  </generation>
  <varray name="kpointlist" >
   <v>       0.12500000       0.12500000       0.00000000 </v>
   <v>       0.25000000      -0.12500000       0.00000000 </v>
   <v>       0.12500000      -0.25000000       0.00000000 </v>
   <v>       0.37500000       0.12500000       0.00000000 </v>
   <v>       0.50000000      -0.37500000       0.00000000 </v>
   <v>       0.12500000       0.50000000      -0.00000000 </v>
   <v>      -0.12500000      -0.37500000      -0.00000000 </v>
   <v>       0.37500000       0.50000000      -0.00000000 </v>
   <v>       0.50000000      -0.12500000      -0.00000000 </v>
   <v>      -0.37500000       0.12500000      -0.00000000 </v>
   <v>      -0.25000000       0.37500000      -0.00000000 </v>
   <v>       0.12500000       0.25000000      -0.00000000 </v>
   <v>      -0.12500000       0.37500000      -0.00000000 </v>
   <v>      -0.37500000       0.25000000       0.00000000 </v>
   <v>      -0.25000000      -0.12500000       0.00000000 </v>
   <v>      -0.12500000       0.12500000      -0.00000000 </v>
   <v>       0.00000000       0.12500000       0.00000000 </v>
   <v>       0.12500000      -0.00000000       0.00000000 </v>
   <v>       0.37500000       0.37500000       0.00000000 </v>
   <v>      -0.25000000      -0.37500000       0.00000000 </v>
   <v>       0.37500000       0.25000000       0.00000000 </v>
   <v>      -0.37500000       0.37500000      -0.00000000 </v>
   <v>       0.00000000       0.37500000       0.00000000 </v>
   <v>       0.37500000      -0.00000000      -0.00000000 </v>
  </varray>
  <varray name="weights" >
   <v>       0.04166667 </v>
   <v>       0.04166667 </v>
   <v>       0.04166667 </v>
   <v>       0.04166667 </v>
   <v>       0.04166667 </v>
   <v>       0.04166667 </v>
   <v>       0.04166667 </v>
   <v>       0.04166667 </v>
   <v>       0.04166667 </v>
   <v>       0.04166667 </v>
   <v>       0.04166667 </v>
   <v>       0.04166667 </v>
   <v>       0.04166667 </v>
   <v>       0.04166667 </v>
   <v>       0.04166667 </v>
   <v>       0.04166667 </v>
   <v>       0.04166667 </v>
   <v>       0.04166667 </v>
   <v>       0.04166667 </v>
   <v>       0.04166667 </v>
   <v>       0.04166667 </v>
   <v>       0.04166667 </v>
   <v>       0.04166667 </v>
   <v>       0.04166667 </v>
  </varray>
 </kpoints>
 <parameters>
  <separator name="general" >
   <i type="string" name="SYSTEM">unknown system</i>
   <i type="logical" name="LCOMPAT"> F  </i>
  </separator>
  <separator name="electronic" >
   <i type="string" name="PREC">normal</i>
   <i name="ENMAX">    520.00000000</i>
   <i name="ENAUG">    627.11200000</i>
   <i name="EDIFF">      0.00001000</i>
   <i type="int" name="IALGO">    38</i>
   <i type="int" name="IWAVPR">    11</i>
   <i type="int" name="NBANDS">   538</i>
   <i type="int" name="NBANDSLOW">    -1</i>
   <i type="int" name="NBANDSHIGH">    -1</i>
   <i name="NELECT">    793.00000000</i>
   <i type="int" name="TURBO">     0</i>
   <i type="int" name="IRESTART">     0</i>
   <i type="int" name="NREBOOT">     0</i>
   <i type="int" name="NMIN">     0</i>
   <i name="EREF">      0.00000000</i>
   <separator name="electronic smearing" >
    <i type="int" name="ISMEAR">     0</i>
    <i name="SIGMA">      0.05000000</i>
    <i name="KSPACING">      0.50000000</i>
    <i type="logical" name="KGAMMA"> T  </i>
    <i type="logical" name="KBLOWUP"> T  </i>
   </separator>
   <separator name="electronic projectors" >
    <i type="logical" name="LREAL"> T  </i>
    <v name="ROPT">     -0.00050000     -0.00050000     -0.00050000     -0.00050000     -0.00050000     -0.00050000     -0.00050000</v>
    <i type="int" name="LMAXPAW">  -100</i>
    <i type="int" name="LMAXMIX">     4</i>
    <i type="logical" name="NLSPLINE"> F  </i>
   </separator>
   <separator name="electronic startup" >
    <i type="int" name="ISTART">     0</i>
    <i type="int" name="ICHARG">     2</i>
    <i type="int" name="INIWAV">     1</i>
   </separator>
   <separator name="electronic spin" >
    <i type="int" name="ISPIN">     2</i>
    <i type="logical" name="LNONCOLLINEAR"> F  </i>
    <v name="MAGMOM">      1.00000000      1.00000000      1.00000000      1.00000000      1.00000000      1.00000000      1.00000000      1.00000000      1.00000000      1.00000000      1.00000000      1.00000000      1.00000000      1.00000000      1.00000000      1.00000000      1.00000000      1.00000000      1.00000000      1.00000000
      1.00000000      1.00000000      1.00000000      1.00000000      1.00000000      1.00000000      1.00000000      1.00000000      1.00000000      1.00000000      1.00000000      1.00000000      1.00000000      1.00000000      1.00000000      1.00000000      1.00000000      1.00000000      1.00000000      1.00000000
      1.00000000      1.00000000      1.00000000      1.00000000      1.00000000      1.00000000      1.00000000      1.00000000      1.00000000      1.00000000      1.00000000      1.00000000      1.00000000      1.00000000      1.00000000      1.00000000      1.00000000      1.00000000      1.00000000      1.00000000
      1.00000000      1.00000000      1.00000000      1.00000000      1.00000000      1.00000000      1.00000000      1.00000000      1.00000000      1.00000000      1.00000000      1.00000000      1.00000000      1.00000000      1.00000000      1.00000000      1.00000000      1.00000000      1.00000000      1.00000000
      1.00000000      1.00000000      1.00000000      1.00000000      1.00000000      1.00000000      1.00000000      1.00000000      1.00000000      1.00000000      1.00000000      1.00000000      1.00000000      1.00000000      1.00000000      1.00000000      1.00000000      1.00000000      1.00000000      1.00000000
      1.00000000      1.00000000      1.00000000      1.00000000      1.00000000      1.00000000      1.00000000      1.00000000      1.00000000      1.00000000      1.00000000      1.00000000      1.00000000      1.00000000      1.00000000      1.00000000      1.00000000      1.00000000      1.00000000      1.00000000
      1.00000000      1.00000000      1.00000000      1.00000000      1.00000000</v>
    <i name="NUPDOWN">     -1.00000000</i>
    <i type="logical" name="LSORBIT"> F  </i>
    <v name="SAXIS">      0.00000000      0.00000000      1.00000000</v>
    <i type="logical" name="LSPIRAL"> F  </i>
    <v name="QSPIRAL">      0.00000000      0.00000000      0.00000000</v>
    <i type="logical" name="LZEROZ"> F  </i>
   </separator>
   <separator name="electronic exchange-correlation" >
    <i type="logical" name="LASPH"> F  </i>
    <i type="logical" name="LMETAGGA"> F  </i>
   </separator>
   <separator name="electronic convergence" >
    <i type="int" name="NELM">    60</i>
    <i type="int" name="NELMDL">     0</i>
    <i type="int" name="NELMIN">     6</i>
    <i name="ENINI">    520.00000000</i>
    <separator name="electronic convergence detail" >
     <i type="logical" name="LDIAG"> T  </i>
     <i type="logical" name="LSUBROT"> F  </i>
     <i name="WEIMIN">      0.00100000</i>
     <i name="EBREAK">      0.00000000</i>
     <i name="DEPER">      0.30000000</i>
     <i type="int" name="NRMM">     4</i>
     <i name="TIME">      0.40000000</i>
    </separator>
   </separator>
   <separator name="electronic mixer" >
    <i name="AMIX">      0.40000000</i>
    <i name="BMIX">      1.00000000</i>
    <i name="AMIN">      0.10000000</i>
    <i name="AMIX_MAG">      1.60000000</i>
    <i name="BMIX_MAG">      1.00000000</i>
    <separator name="electronic mixer details" >
     <i type="int" name="IMIX">     4</i>
     <i type="logical" name="MIXFIRST"> F  </i>
     <i type="int" name="MAXMIX">   -45</i>
     <i name="WC">    100.00000000</i>
     <i type="int" name="INIMIX">     1</i>
     <i type="int" name="MIXPRE">     1</i>
     <i type="int" name="MREMOVE">     5</i>
    </separator>
   </separator>
   <separator name="electronic dipolcorrection" >
    <i type="logical" name="LDIPOL"> F  </i>
    <i type="logical" name="LMONO"> F  </i>
    <i type="int" name="IDIPOL">     0</i>
    <i name="EPSILON">      1.00000000</i>
    <v name="DIPOL">   -100.00000000   -100.00000000   -100.00000000</v>
    <i name="EFIELD">      0.00000000</i>
   </separator>
  </separator>
  <separator name="grids" >
   <i type="int" name="NGX">    60</i>
   <i type="int" name="NGY">    60</i>
   <i type="int" name="NGZ">   196</i>
   <i type="int" name="NGXF">   120</i>
   <i type="int" name="NGYF">   120</i>
   <i type="int" name="NGZF">   392</i>
   <i type="logical" name="ADDGRID"> T  </i>
  </separator>
  <separator name="ionic" >
   <i type="int" name="NSW">   100</i>
   <i type="int" name="IBRION">     2</i>
   <i type="int" name="MDALGO">     0</i>
   <i type="int" name="ISIF">     2</i>
   <i name="PSTRESS">      0.00000000</i>
   <i name="EDIFFG">     -0.02000000</i>
   <i type="int" name="NFREE">     1</i>
   <i name="POTIM">      0.50000000</i>
   <i name="SMASS">     -3.00000000</i>
   <i name="SCALEE">      1.00000000</i>
  </separator>
  <separator name="ionic md" >
   <i name="TEBEG">      0.00010000</i>
   <i name="TEEND">      0.00010000</i>
   <i type="int" name="NBLOCK">     1</i>
   <i type="int" name="KBLOCK">   100</i>
   <i type="int" name="NPACO">   256</i>
   <i name="APACO">     16.00000000</i>
  </separator>
  <separator name="symmetry" >
   <i type="int" name="ISYM">     2</i>
   <i name="SYMPREC">      0.00001000</i>
  </separator>
  <separator name="dos" >
   <i type="int" name="LORBIT">     0</i>
   <v name="RWIGS">     -1.00000000     -1.00000000     -1.00000000     -1.00000000     -1.00000000     -1.00000000     -1.00000000</v>
   <i type="int" name="NEDOS">   301</i>
   <i name="EMIN">     10.00000000</i>
   <i name="EMAX">    -10.00000000</i>
   <i name="EFERMI">      0.00000000</i>
  </separator>
  <separator name="writing" >
   <i type="int" name="NWRITE">     2</i>
   <i type="logical" name="LWAVE"> T  </i>
   <i type="logical" name="LDOWNSAMPLE"> F  </i>
   <i type="logical" name="LCHARG"> T  </i>
   <i type="logical" name="LPARD"> F  </i>
   <i type="logical" name="LVTOT"> F  </i>
   <i type="logical" name="LVHAR"> F  </i>
   <i type="logical" name="LELF"> F  </i>
   <i type="logical" name="LOPTICS"> F  </i>
   <v name="STM">      0.00000000      0.00000000      0.00000000      0.00000000      0.00000000      0.00000000      0.00000000</v>
  </separator>
  <separator name="performance" >
   <i type="int" name="NPAR">     2</i>
   <i type="int" name="NSIM">     4</i>
   <i type="int" name="NBLK">    -1</i>
   <i type="logical" name="LPLANE"> T  </i>
   <i type="logical" name="LSCALAPACK"> T  </i>
   <i type="logical" name="LSCAAWARE"> F  </i>
   <i type="logical" name="LSCALU"> F  </i>
   <i type="logical" name="LASYNC"> F  </i>
   <i type="logical" name="LORBITALREAL"> F  </i>
  </separator>
  <separator name="miscellaneous" >
   <i type="int" name="IDIOT">     3</i>
   <i type="int" name="PHON_NSTRUCT">    -1</i>
   <i type="logical" name="LMUSIC"> F  </i>
   <v name="POMASS">     95.94000000     14.00100000     28.08500000     58.69000000     16.00000000    127.60000000      1.00000000</v>
   <v name="DARWINR">      0.00000000      0.00000000      0.00000000      0.00000000      0.00000000      0.00000000      0.00000000</v>
   <v name="DARWINV">      1.00000000      1.00000000      1.00000000      1.00000000      1.00000000      1.00000000      1.00000000</v>
   <i type="logical" name="LCORR"> T  </i>
  </separator>
  <i type="logical" name="GGA_COMPAT"> T  </i>
  <i type="logical" name="LBERRY"> F  </i>
  <i type="int" name="ICORELEVEL">     0</i>
  <i type="logical" name="LDAU"> T  </i>
  <v type="int" name="LDAUTYPE">     2</v>
  <v type="int" name="LDAUL">     2</v>
  <v name="LDAUU">      3.50000000</v>
  <v name="LDAUJ">      0.00000000</v>
  <i type="int" name="LDAUPRINT">     0</i>
  <i type="int" name="I_CONSTRAINED_M">     0</i>
  <separator name="electronic exchange-correlation" >
   <i type="string" name="GGA">--</i>
   <i type="int" name="VOSKOWN">     0</i>
   <i type="logical" name="LHFCALC"> F  </i>
   <i type="string" name="PRECFOCK"></i>
   <i type="logical" name="LSYMGRAD"> F  </i>
   <i type="logical" name="LHFONE"> F  </i>
   <i type="logical" name="LRHFCALC"> F  </i>
   <i type="logical" name="LTHOMAS"> F  </i>
   <i type="logical" name="LMODELHF"> F  </i>
   <i type="logical" name="LFOCKACE"> F  </i>
   <i name="ENCUT4O">     -1.00000000</i>
   <i type="int" name="EXXOEP">     0</i>
   <i type="int" name="FOURORBIT">     0</i>
   <i name="AEXX">      0.00000000</i>
   <i name="HFALPHA">      0.00000000</i>
   <i name="MCALPHA">      0.00000000</i>
   <i name="ALDAX">      1.00000000</i>
   <i name="AGGAX">      1.00000000</i>
   <i name="ALDAC">      1.00000000</i>
   <i name="AGGAC">      1.00000000</i>
   <i type="int" name="NKREDX">     1</i>
   <i type="int" name="NKREDY">     1</i>
   <i type="int" name="NKREDZ">     1</i>
   <i type="logical" name="SHIFTRED"> F  </i>
   <i type="logical" name="ODDONLY"> F  </i>
   <i type="logical" name="EVENONLY"> F  </i>
   <i type="int" name="LMAXFOCK">     0</i>
   <i type="int" name="NMAXFOCKAE">     0</i>
   <i type="logical" name="LFOCKAEDFT"> F  </i>
   <i name="HFSCREEN">      0.00000000</i>
   <i name="HFSCREENC">      0.00000000</i>
   <i type="int" name="NBANDSGWLOW">     0</i>
  </separator>
  <separator name="vdW DFT" >
   <i type="logical" name="LUSE_VDW"> F  </i>
   <i name="Zab_VDW">     -0.84910000</i>
   <i name="PARAM1">      0.12340000</i>
   <i name="PARAM2">      1.00000000</i>
   <i name="PARAM3">      0.00000000</i>
  </separator>
  <separator name="model GW" >
   <i type="int" name="MODEL_GW">     0</i>
   <i name="MODEL_EPS0">     14.96328154</i>
   <i name="MODEL_ALPHA">      1.00000000</i>
  </separator>
  <separator name="linear response parameters" >
   <i type="logical" name="LEPSILON"> F  </i>
   <i type="logical" name="LRPA"> F  </i>
   <i type="logical" name="LNABLA"> F  </i>
   <i type="logical" name="LVEL"> F  </i>
   <i type="int" name="KINTER">     0</i>
   <i name="CSHIFT">      0.10000000</i>
   <i name="OMEGAMAX">     -1.00000000</i>
   <i name="DEG_THRESHOLD">      0.00200000</i>
   <i name="RTIME">     -0.10000000</i>
   <i name="WPLASMAI">      0.00000000</i>
   <v name="DFIELD">      0.00000000      0.00000000      0.00000000</v>
   <v name="WPLASMA">      0.00000000      0.00000000      0.00000000      0.00000000      0.00000000      0.00000000      0.00000000      0.00000000      0.00000000</v>
  </separator>
  <separator name="orbital magnetization" >
   <i type="logical" name="NUCIND"> F  </i>
   <v name="MAGPOS">      0.00000000      0.00000000      0.00000000</v>
   <i type="logical" name="LNICSALL"> T  </i>
   <i type="logical" name="ORBITALMAG"> F  </i>
   <i type="logical" name="LMAGBLOCH"> F  </i>
   <i type="logical" name="LCHIMAG"> F  </i>
   <i type="logical" name="LGAUGE"> T  </i>
   <i type="int" name="MAGATOM">     0</i>
   <v name="MAGDIPOL">      0.00000000      0.00000000      0.00000000</v>
   <v name="AVECCONST">      0.00000000      0.00000000      0.00000000</v>
  </separator>
  <separator name="response functions" >
   <i type="logical" name="LFINITE_TEMPERATURE"> F  </i>
   <i type="logical" name="LADDER"> F  </i>
   <i type="logical" name="LRPAFORCE"> F  </i>
   <i type="logical" name="LFXC"> F  </i>
   <i type="logical" name="LHARTREE"> T  </i>
   <i type="int" name="IBSE">     0</i>
   <v type="int" name="KPOINT">    -1     0     0     0</v>
   <i type="logical" name="LTCTC"> F  </i>
   <i type="logical" name="LTCTE"> F  </i>
   <i type="logical" name="LTETE"> F  </i>
   <i type="logical" name="LTRIPLET"> F  </i>
   <i type="logical" name="LFXCEPS"> F  </i>
   <i type="logical" name="LFXHEG"> F  </i>
   <i type="int" name="NATURALO">     2</i>
   <i type="logical" name="LHOLEGF"> F  </i>
   <i type="logical" name="L2ORDER"> F  </i>
   <i type="logical" name="LDMP1"> F  </i>
   <i type="logical" name="LMP2LT"> F  </i>
   <i type="logical" name="LSMP2LT"> F  </i>
   <i type="logical" name="LGWLF"> F  </i>
   <i name="ENCUTGW">     -2.00000000</i>
   <i name="ENCUTGWSOFT">     -2.00000000</i>
   <i name="ENCUTLF">     -1.00000000</i>
   <i type="logical" name="LESF_SPLINES"> F  </i>
   <i type="int" name="LMAXMP2">    -1</i>
   <i name="SCISSOR">      0.00000000</i>
   <i type="int" name="NOMEGA">     0</i>
   <i type="int" name="NOMEGAR">     0</i>
   <i type="int" name="NBANDSGW">    -1</i>
   <i type="int" name="NBANDSO">    -1</i>
   <i type="int" name="NBANDSV">    -1</i>
   <i type="int" name="NELM">    60</i>
   <i type="int" name="NELMHF">     1</i>
   <i type="int" name="DIM">     3</i>
   <i type="int" name="IESPILON">     4</i>
   <i type="int" name="ANTIRES">     0</i>
   <i name="OMEGAMAX">    -30.00000000</i>
   <i name="OMEGAMIN">    -30.00000000</i>
   <i name="OMEGATL">   -200.00000000</i>
   <i type="int" name="OMEGAGRID">     0</i>
   <i name="CSHIFT">     -0.10000000</i>
   <i type="logical" name="LSELFENERGY"> F  </i>
   <i type="logical" name="LSPECTRAL"> F  </i>
   <i type="logical" name="LSPECTRALGW"> F  </i>
   <i type="logical" name="LSINGLES"> F  </i>
   <i type="logical" name="LFERMIGW"> F  </i>
   <i type="logical" name="ODDONLYGW"> F  </i>
   <i type="logical" name="EVENONLYGW"> F  </i>
   <i type="int" name="NKREDLFX">     1</i>
   <i type="int" name="NKREDLFY">     1</i>
   <i type="int" name="NKREDLFZ">     1</i>
   <i type="int" name="MAXMEM">  2800</i>
   <i type="int" name="TELESCOPE">     0</i>
   <i type="int" name="NTAUPAR">    -1</i>
   <i type="int" name="NOMEGAPAR">    -1</i>
   <i name="LAMBDA">      1.00000000</i>
  </separator>
  <separator name="External order field" >
   <i name="OFIELD_KAPPA">      0.00000000</i>
   <v name="OFIELD_K">      0.00000000      0.00000000      0.00000000</v>
   <i name="OFIELD_Q6_NEAR">      0.00000000</i>
   <i name="OFIELD_Q6_FAR">      0.00000000</i>
   <i name="OFIELD_A">      0.00000000</i>
  </separator>
 </parameters>
 <atominfo>
  <atoms>     125 </atoms>
  <types>       7 </types>
  <array name="atoms" >
   <dimension dim="1">ion</dimension>
   <field type="string">element</field>
   <field type="int">atomtype</field>
   <set>
    <rc><c>Mo</c><c>   1</c></rc>
    <rc><c>Mo</c><c>   1</c></rc>
    <rc><c>Mo</c><c>   1</c></rc>
    <rc><c>Mo</c><c>   1</c></rc>
    <rc><c>Mo</c><c>   1</c></rc>
    <rc><c>Mo</c><c>   1</c></rc>
    <rc><c>Mo</c><c>   1</c></rc>
    <rc><c>Mo</c><c>   1</c></rc>
    <rc><c>Mo</c><c>   1</c></rc>
    <rc><c>Mo</c><c>   1</c></rc>
    <rc><c>Mo</c><c>   1</c></rc>
    <rc><c>Mo</c><c>   1</c></rc>
    <rc><c>N </c><c>   2</c></rc>
    <rc><c>N </c><c>   2</c></rc>
    <rc><c>N </c><c>   2</c></rc>
    <rc><c>N </c><c>   2</c></rc>
    <rc><c>N </c><c>   2</c></rc>
    <rc><c>N </c><c>   2</c></rc>
    <rc><c>N </c><c>   2</c></rc>
    <rc><c>N </c><c>   2</c></rc>
    <rc><c>N </c><c>   2</c></rc>
    <rc><c>N </c><c>   2</c></rc>
    <rc><c>N </c><c>   2</c></rc>
    <rc><c>N </c><c>   2</c></rc>
    <rc><c>N </c><c>   2</c></rc>
    <rc><c>N </c><c>   2</c></rc>
    <rc><c>N </c><c>   2</c></rc>
    <rc><c>N </c><c>   2</c></rc>
    <rc><c>N </c><c>   2</c></rc>
    <rc><c>N </c><c>   2</c></rc>
    <rc><c>N </c><c>   2</c></rc>
    <rc><c>N </c><c>   2</c></rc>
    <rc><c>N </c><c>   2</c></rc>
    <rc><c>N </c><c>   2</c></rc>
    <rc><c>N </c><c>   2</c></rc>
    <rc><c>N </c><c>   2</c></rc>
    <rc><c>N </c><c>   2</c></rc>
    <rc><c>N </c><c>   2</c></rc>
    <rc><c>N </c><c>   2</c></rc>
    <rc><c>N </c><c>   2</c></rc>
    <rc><c>N </c><c>   2</c></rc>
    <rc><c>N </c><c>   2</c></rc>
    <rc><c>N </c><c>   2</c></rc>
    <rc><c>N </c><c>   2</c></rc>
    <rc><c>N </c><c>   2</c></rc>
    <rc><c>N </c><c>   2</c></rc>
    <rc><c>N </c><c>   2</c></rc>
    <rc><c>N </c><c>   2</c></rc>
    <rc><c>N </c><c>   2</c></rc>
    <rc><c>N </c><c>   2</c></rc>
    <rc><c>N </c><c>   2</c></rc>
    <rc><c>N </c><c>   2</c></rc>
    <rc><c>N </c><c>   2</c></rc>
    <rc><c>N </c><c>   2</c></rc>
    <rc><c>N </c><c>   2</c></rc>
    <rc><c>N </c><c>   2</c></rc>
    <rc><c>N </c><c>   2</c></rc>
    <rc><c>N </c><c>   2</c></rc>
    <rc><c>N </c><c>   2</c></rc>
    <rc><c>N </c><c>   2</c></rc>
    <rc><c>Si</c><c>   3</c></rc>
    <rc><c>Si</c><c>   3</c></rc>
    <rc><c>Si</c><c>   3</c></rc>
    <rc><c>Si</c><c>   3</c></rc>
    <rc><c>Si</c><c>   3</c></rc>
    <rc><c>Si</c><c>   3</c></rc>
    <rc><c>Si</c><c>   3</c></rc>
    <rc><c>Si</c><c>   3</c></rc>
    <rc><c>Si</c><c>   3</c></rc>
    <rc><c>Si</c><c>   3</c></rc>
    <rc><c>Si</c><c>   3</c></rc>
    <rc><c>Si</c><c>   3</c></rc>
    <rc><c>Si</c><c>   3</c></rc>
    <rc><c>Si</c><c>   3</c></rc>
    <rc><c>Si</c><c>   3</c></rc>
    <rc><c>Si</c><c>   3</c></rc>
    <rc><c>Si</c><c>   3</c></rc>
    <rc><c>Si</c><c>   3</c></rc>
    <rc><c>Si</c><c>   3</c></rc>
    <rc><c>Si</c><c>   3</c></rc>
    <rc><c>Si</c><c>   3</c></rc>
    <rc><c>Si</c><c>   3</c></rc>
    <rc><c>Si</c><c>   3</c></rc>
    <rc><c>Si</c><c>   3</c></rc>
    <rc><c>Ni</c><c>   4</c></rc>
    <rc><c>Ni</c><c>   4</c></rc>
    <rc><c>Ni</c><c>   4</c></rc>
    <rc><c>Ni</c><c>   4</c></rc>
    <rc><c>Ni</c><c>   4</c></rc>
    <rc><c>Ni</c><c>   4</c></rc>
    <rc><c>Ni</c><c>   4</c></rc>
    <rc><c>Ni</c><c>   4</c></rc>
    <rc><c>Ni</c><c>   4</c></rc>
    <rc><c>Ni</c><c>   4</c></rc>
    <rc><c>Ni</c><c>   4</c></rc>
    <rc><c>Ni</c><c>   4</c></rc>
    <rc><c>O </c><c>   5</c></rc>
    <rc><c>O </c><c>   5</c></rc>
    <rc><c>O </c><c>   5</c></rc>
    <rc><c>O </c><c>   5</c></rc>
    <rc><c>O </c><c>   5</c></rc>
    <rc><c>O </c><c>   5</c></rc>
    <rc><c>O </c><c>   5</c></rc>
    <rc><c>O </c><c>   5</c></rc>
    <rc><c>O </c><c>   5</c></rc>
    <rc><c>O </c><c>   5</c></rc>
    <rc><c>O </c><c>   5</c></rc>
    <rc><c>O </c><c>   5</c></rc>
    <rc><c>O </c><c>   5</c></rc>
    <rc><c>O </c><c>   5</c></rc>
    <rc><c>O </c><c>   5</c></rc>
    <rc><c>O </c><c>   5</c></rc>
    <rc><c>O </c><c>   5</c></rc>
    <rc><c>O </c><c>   5</c></rc>
    <rc><c>O </c><c>   5</c></rc>
    <rc><c>O </c><c>   5</c></rc>
    <rc><c>O </c><c>   5</c></rc>
    <rc><c>O </c><c>   5</c></rc>
    <rc><c>O </c><c>   5</c></rc>
    <rc><c>O </c><c>   5</c></rc>
    <rc><c>Te</c><c>   6</c></rc>
    <rc><c>Te</c><c>   6</c></rc>
    <rc><c>Te</c><c>   6</c></rc>
    <rc><c>Te</c><c>   6</c></rc>
    <rc><c>H </c><c>   7</c></rc>
   </set>
  </array>
  <array name="atomtypes" >
   <dimension dim="1">type</dimension>
   <field type="int">atomspertype</field>
   <field type="string">element</field>
   <field>mass</field>
   <field>valence</field>
   <field type="string">pseudopotential</field>
   <set>
    <rc><c>  12</c><c>Mo</c><c>     95.94000000</c><c>     14.00000000</c><c>  PAW_PBE Mo_sv 02Feb2006               </c></rc>
    <rc><c>  48</c><c>N </c><c>     14.00100000</c><c>      5.00000000</c><c>  PAW_PBE N 08Apr2002                   </c></rc>
    <rc><c>  24</c><c>Si</c><c>     28.08500000</c><c>      4.00000000</c><c>  PAW_PBE Si 05Jan2001                  </c></rc>
    <rc><c>  12</c><c>Ni</c><c>     58.69000000</c><c>     10.00000000</c><c>  PAW_PBE Ni 02Aug2007                  </c></rc>
    <rc><c>  24</c><c>O </c><c>     16.00000000</c><c>      6.00000000</c><c>  PAW_PBE O 08Apr2002                   </c></rc>
    <rc><c>   4</c><c>Te</c><c>    127.60000000</c><c>      6.00000000</c><c>  PAW_PBE Te 08Apr2002                  </c></rc>
    <rc><c>   1</c><c>H </c><c>      1.00000000</c><c>      1.00000000</c><c>  PAW_PBE H 15Jun2001                   </c></rc>
   </set>
  </array>
 </atominfo>
 <structure name="initialpos" >
  <crystal>
   <varray name="basis" >
    <v>      10.15022300       0.00000000       0.00000000 </v>
    <v>      -5.07509751       8.79036713       0.00000000 </v>
    <v>       0.00000000      -0.00005351      34.93840000 </v>
   </varray>
   <i name="volume">   3117.35032185 </i>
   <varray name="rec_basis" >
    <v>       0.09852000       0.05688029       0.00000009 </v>
    <v>       0.00000000       0.11376089       0.00000017 </v>
    <v>       0.00000000       0.00000000       0.02862180 </v>
   </varray>
  </crystal>
  <varray name="positions" >
   <v>       0.16662700       0.00000300       0.60990800 </v>
   <v>       0.16662700       0.50000300       0.60990800 </v>
   <v>       0.66662700       0.00000300       0.60990800 </v>
   <v>       0.66662700       0.50000300       0.60990800 </v>
   <v>       0.33337600       0.33337300       0.60990800 </v>
   <v>       0.33337600       0.83337300       0.60990800 </v>
   <v>       0.83337600       0.33337300       0.60990800 </v>
   <v>       0.83337600       0.83337300       0.60990800 </v>
   <v>       0.99999700       0.16662400       0.60990800 </v>
   <v>       0.99999700       0.66662400       0.60990800 </v>
   <v>       0.49999700       0.16662400       0.60990800 </v>
   <v>       0.49999700       0.66662400       0.60990800 </v>
   <v>       0.16705400       0.16709400       0.57396600 </v>
   <v>       0.16705400       0.66709400       0.57396600 </v>
   <v>       0.66705400       0.16709400       0.57396600 </v>
   <v>       0.66705400       0.66709400       0.57396600 </v>
   <v>       0.16671500       0.16671900       0.64584600 </v>
   <v>       0.16671500       0.66671900       0.64584600 </v>
   <v>       0.66671500       0.16671900       0.64584600 </v>
   <v>       0.66671500       0.66671900       0.64584600 </v>
   <v>       0.16664500       0.00000200       0.71070500 </v>
   <v>       0.16664500       0.50000200       0.71070500 </v>
   <v>       0.66664500       0.00000200       0.71070500 </v>
   <v>       0.66664500       0.50000200       0.71070500 </v>
   <v>       0.16579400       0.00011400       0.50939600 </v>
   <v>       0.16579400       0.50011400       0.50939600 </v>
   <v>       0.66579400       0.00011400       0.50939600 </v>
   <v>       0.66579400       0.50011400       0.50939600 </v>
   <v>       0.33290600       0.99996000       0.57396600 </v>
   <v>       0.33290600       0.49996000       0.57396600 </v>
   <v>       0.83290600       0.99996000       0.57396600 </v>
   <v>       0.83290600       0.49996000       0.57396600 </v>
   <v>       0.33328100       0.99999500       0.64584600 </v>
   <v>       0.33328100       0.49999500       0.64584600 </v>
   <v>       0.83328100       0.99999500       0.64584600 </v>
   <v>       0.83328100       0.49999500       0.64584600 </v>
   <v>       0.33335700       0.33335500       0.71070500 </v>
   <v>       0.33335700       0.83335500       0.71070500 </v>
   <v>       0.83335700       0.33335500       0.71070500 </v>
   <v>       0.83335700       0.83335500       0.71070500 </v>
   <v>       0.33432000       0.33420600       0.50939600 </v>
   <v>       0.33432000       0.83420600       0.50939600 </v>
   <v>       0.83432000       0.33420600       0.50939600 </v>
   <v>       0.83432000       0.83420600       0.50939600 </v>
   <v>       0.00004000       0.33294600       0.57396600 </v>
   <v>       0.00004000       0.83294600       0.57396600 </v>
   <v>       0.50004000       0.33294600       0.57396600 </v>
   <v>       0.50004000       0.83294600       0.57396600 </v>
   <v>       0.00000500       0.33328500       0.64584600 </v>
   <v>       0.00000500       0.83328500       0.64584600 </v>
   <v>       0.50000500       0.33328500       0.64584600 </v>
   <v>       0.50000500       0.83328500       0.64584600 </v>
   <v>       0.99999800       0.16664300       0.71070500 </v>
   <v>       0.99999800       0.66664300       0.71070500 </v>
   <v>       0.49999800       0.16664300       0.71070500 </v>
   <v>       0.49999800       0.66664300       0.71070500 </v>
   <v>       0.49988600       0.16568000       0.50939600 </v>
   <v>       0.49988600       0.66568000       0.50939600 </v>
   <v>       0.99988600       0.16568000       0.50939600 </v>
   <v>       0.99988600       0.66568000       0.50939600 </v>
   <v>       0.16665500       0.16665500       0.69612400 </v>
   <v>       0.16665500       0.66665500       0.69612400 </v>
   <v>       0.66665500       0.16665500       0.69612400 </v>
   <v>       0.66665500       0.66665500       0.69612400 </v>
   <v>       0.16734600       0.16737800       0.52372400 </v>
   <v>       0.16734600       0.66737800       0.52372400 </v>
   <v>       0.66734600       0.16737800       0.52372400 </v>
   <v>       0.66734600       0.66737800       0.52372400 </v>
   <v>       0.33334500       0.00000000       0.69612400 </v>
   <v>       0.33334500       0.50000000       0.69612400 </v>
   <v>       0.83334500       0.00000000       0.69612400 </v>
   <v>       0.83334500       0.50000000       0.69612400 </v>
   <v>       0.33262200       0.99996800       0.52372400 </v>
   <v>       0.33262200       0.49996800       0.52372400 </v>
   <v>       0.83262200       0.99996800       0.52372400 </v>
   <v>       0.83262200       0.49996800       0.52372400 </v>
   <v>       0.99999900       0.33334500       0.69612400 </v>
   <v>       0.99999900       0.83334500       0.69612400 </v>
   <v>       0.49999900       0.33334500       0.69612400 </v>
   <v>       0.49999900       0.83334500       0.69612400 </v>
   <v>       0.00003100       0.33265300       0.52372400 </v>
   <v>       0.00003100       0.83265300       0.52372400 </v>
   <v>       0.50003100       0.33265300       0.52372400 </v>
   <v>       0.50003100       0.83265300       0.52372400 </v>
   <v>       0.00000000       0.00000000       0.34945100 </v>
   <v>       0.00000000       0.50000000       0.34945100 </v>
   <v>       0.50000000       0.00000000       0.34945100 </v>
   <v>       0.50000000       0.50000000       0.34945100 </v>
   <v>       0.00000100       0.00000100       0.44108900 </v>
   <v>       0.00000100       0.50000100       0.44108900 </v>
   <v>       0.50000100       0.00000100       0.44108900 </v>
   <v>       0.50000100       0.50000100       0.44108900 </v>
   <v>       0.33333300       0.16666600       0.39481200 </v>
   <v>       0.33333300       0.66666600       0.39481200 </v>
   <v>       0.83333300       0.16666600       0.39481200 </v>
   <v>       0.83333300       0.66666600       0.39481200 </v>
   <v>       0.31846500       0.32466000       0.36219700 </v>
   <v>       0.31846500       0.82466000       0.36219700 </v>
   <v>       0.81846500       0.32466000       0.36219700 </v>
   <v>       0.81846500       0.82466000       0.36219700 </v>
   <v>       0.17534000       0.49380300       0.36219700 </v>
   <v>       0.17534000       0.99380300       0.36219700 </v>
   <v>       0.67534000       0.49380300       0.36219700 </v>
   <v>       0.67534000       0.99380300       0.36219700 </v>
   <v>       0.00619700       0.18153600       0.36219700 </v>
   <v>       0.00619700       0.68153600       0.36219700 </v>
   <v>       0.50619700       0.18153600       0.36219700 </v>
   <v>       0.50619700       0.68153600       0.36219700 </v>
   <v>       0.00625100       0.32480800       0.42718100 </v>
   <v>       0.00625100       0.82480800       0.42718100 </v>
   <v>       0.50625100       0.32480800       0.42718100 </v>
   <v>       0.50625100       0.82480800       0.42718100 </v>
   <v>       0.17519400       0.18144500       0.42718200 </v>
   <v>       0.17519400       0.68144500       0.42718200 </v>
   <v>       0.67519400       0.18144500       0.42718200 </v>
   <v>       0.67519400       0.68144500       0.42718200 </v>
   <v>       0.31855700       0.49374900       0.42718100 </v>
   <v>       0.31855700       0.99374900       0.42718100 </v>
   <v>       0.81855700       0.49374900       0.42718100 </v>
   <v>       0.81855700       0.99374900       0.42718100 </v>
   <v>       0.16666800       0.33333400       0.39464700 </v>
   <v>       0.16666800       0.83333400       0.39464700 </v>
   <v>       0.66666800       0.33333400       0.39464700 </v>
   <v>       0.66666800       0.83333400       0.39464700 </v>
   <v>       0.50637270       0.67156412       0.74815506 </v>
  </varray>
 </structure>
 <calculation>
  <scstep>
   <time name="dav">  393.12  394.08</time>
   <time name="total">  393.65  394.61</time>
   <energy>
    <i name="alphaZ">   1018.42134492 </i>
    <i name="ewald"> 608939.29943622 </i>
    <i name="hartreedc">-665259.69953267 </i>
    <i name="XCdc">   2500.94222551 </i>
    <i name="pawpsdc">  50616.36816093 </i>
    <i name="pawaedc"> -50486.81863487 </i>
    <i name="eentropy">     -0.04361394 </i>
    <i name="bandstr">  -1154.18306614 </i>
    <i name="atom">  61732.89428039 </i>
    <i name="e_fr_energy">   7907.18060034 </i>
    <i name="e_wo_entrp">   7907.22421429 </i>
    <i name="e_0_energy">   7907.20240731 </i>
   </energy>
  </scstep>
  <scstep>
   <time name="dav">  722.05  723.79</time>
   <time name="total">  722.20  723.95</time>
   <energy>
    <i name="e_fr_energy">    112.17307015 </i>
    <i name="e_wo_entrp">    112.20640653 </i>
    <i name="e_0_energy">    112.18973834 </i>
   </energy>
  </scstep>
  <scstep>
   <time name="dav">  713.78  715.50</time>
   <time name="total">  713.89  715.61</time>
   <energy>
    <i name="e_fr_energy">   -952.27992368 </i>
    <i name="e_wo_entrp">   -952.25763559 </i>
    <i name="e_0_energy">   -952.26877964 </i>
   </energy>
  </scstep>
  <scstep>
   <time name="dav">  735.65  737.42</time>
   <time name="total">  735.74  737.51</time>
   <energy>
    <i name="e_fr_energy">  -1002.34289240 </i>
    <i name="e_wo_entrp">  -1002.31182341 </i>
    <i name="e_0_energy">  -1002.32735791 </i>
   </energy>
  </scstep>
  <scstep>
   <time name="dav">  827.26  829.25</time>
   <time name="total">  840.67  842.70</time>
   <energy>
    <i name="e_fr_energy">  -1004.60016709 </i>
    <i name="e_wo_entrp">  -1004.56580151 </i>
    <i name="e_0_energy">  -1004.58298430 </i>
   </energy>
  </scstep>
  <scstep>
   <time name="dav">  765.98  767.83</time>
   <time name="total">  780.23  782.11</time>
   <energy>
    <i name="e_fr_energy">   -787.04534467 </i>
    <i name="e_wo_entrp">   -787.03973282 </i>
    <i name="e_0_energy">   -787.04253875 </i>
   </energy>
  </scstep>
  <scstep>
   <time name="dav">  725.70  727.45</time>
   <time name="total">  741.00  742.79</time>
   <energy>
    <i name="e_fr_energy">   -783.63033135 </i>
    <i name="e_wo_entrp">   -783.63031732 </i>
    <i name="e_0_energy">   -783.63032433 </i>
   </energy>
  </scstep>
  <scstep>
   <time name="dav">  781.44  783.33</time>
   <time name="total">  796.29  798.22</time>
   <energy>
    <i name="e_fr_energy">   -777.03977042 </i>
    <i name="e_wo_entrp">   -777.03972379 </i>
    <i name="e_0_energy">   -777.03974710 </i>
   </energy>
  </scstep>
  <scstep>
   <time name="dav">  506.71  507.94</time>
   <time name="total">  517.38  518.64</time>
   <energy>
    <i name="e_fr_energy">   -776.91065275 </i>
    <i name="e_wo_entrp">   -776.90021581 </i>
    <i name="e_0_energy">   -776.90543428 </i>
   </energy>
  </scstep>
  <scstep>
   <time name="dav">  390.78  391.72</time>
   <time name="total">  401.27  402.24</time>
   <energy>
    <i name="e_fr_energy">   -790.70630772 </i>
    <i name="e_wo_entrp">   -790.70518324 </i>
    <i name="e_0_energy">   -790.70574548 </i>
   </energy>
  </scstep>
  <scstep>
   <time name="dav">  359.81  360.68</time>
   <time name="total">  370.31  371.21</time>
   <energy>
    <i name="e_fr_energy">   -802.60861673 </i>
    <i name="e_wo_entrp">   -802.60848084 </i>
    <i name="e_0_energy">   -802.60854879 </i>
   </energy>
  </scstep>
  <scstep>
   <time name="dav">  383.85  384.77</time>
   <time name="total">  394.35  395.31</time>
   <energy>
    <i name="e_fr_energy">   -817.74289149 </i>
    <i name="e_wo_entrp">   -817.74265089 </i>
    <i name="e_0_energy">   -817.74277119 </i>
   </energy>
  </scstep>
  <scstep>
   <time name="dav">  354.53  355.39</time>
   <time name="total">  365.05  365.93</time>
   <energy>
    <i name="e_fr_energy">   -845.37807129 </i>
    <i name="e_wo_entrp">   -845.36577036 </i>
    <i name="e_0_energy">   -845.37192083 </i>
   </energy>
  </scstep>
  <scstep>
   <time name="dav">  382.87  383.79</time>
   <time name="total">  393.42  394.37</time>
   <energy>
    <i name="e_fr_energy">   -865.23289979 </i>
    <i name="e_wo_entrp">   -865.22506998 </i>
    <i name="e_0_energy">   -865.22898488 </i>
   </energy>
  </scstep>
  <scstep>
   <time name="dav">  362.42  363.29</time>
   <time name="total">  372.90  373.80</time>
   <energy>
    <i name="e_fr_energy">   -877.09335562 </i>
    <i name="e_wo_entrp">   -877.08790032 </i>
    <i name="e_0_energy">   -877.09062797 </i>
   </energy>
  </scstep>
  <scstep>
   <time name="dav">  370.72  371.61</time>
   <time name="total">  381.23  382.15</time>
   <energy>
    <i name="e_fr_energy">   -882.81232303 </i>
    <i name="e_wo_entrp">   -882.79535387 </i>
    <i name="e_0_energy">   -882.80383845 </i>
   </energy>
  </scstep>
  <scstep>
   <time name="dav">  377.76  378.67</time>
   <time name="total">  388.31  389.25</time>
   <energy>
    <i name="e_fr_energy">   -885.45708954 </i>
    <i name="e_wo_entrp">   -885.44731978 </i>
    <i name="e_0_energy">   -885.45220466 </i>
   </energy>
  </scstep>
  <scstep>
   <time name="dav">  374.92  375.83</time>
   <time name="total">  385.41  386.35</time>
   <energy>
    <i name="e_fr_energy">   -888.31706028 </i>
    <i name="e_wo_entrp">   -888.30477364 </i>
    <i name="e_0_energy">   -888.31091696 </i>
   </energy>
  </scstep>
  <scstep>
   <time name="dav">  347.28  348.12</time>
   <time name="total">  357.85  358.72</time>
   <energy>
    <i name="e_fr_energy">   -890.19267802 </i>
    <i name="e_wo_entrp">   -890.17589062 </i>
    <i name="e_0_energy">   -890.18428432 </i>
   </energy>
  </scstep>
  <scstep>
   <time name="dav">  356.60  357.46</time>
   <time name="total">  367.13  368.02</time>
   <energy>
    <i name="e_fr_energy">   -891.51460175 </i>
    <i name="e_wo_entrp">   -891.49866633 </i>
    <i name="e_0_energy">   -891.50663404 </i>
   </energy>
  </scstep>
  <scstep>
   <time name="dav">  396.22  397.17</time>
   <time name="total">  406.67  407.65</time>
   <energy>
    <i name="e_fr_energy">   -892.94509459 </i>
    <i name="e_wo_entrp">   -892.92984974 </i>
    <i name="e_0_energy">   -892.93747217 </i>
   </energy>
  </scstep>
  <scstep>
   <time name="dav">  354.73  355.58</time>
   <time name="total">  365.25  366.13</time>
   <energy>
    <i name="e_fr_energy">   -893.84014640 </i>
    <i name="e_wo_entrp">   -893.82421157 </i>
    <i name="e_0_energy">   -893.83217899 </i>
   </energy>
  </scstep>
  <scstep>
   <time name="dav">  471.15  472.29</time>
   <time name="total">  483.71  484.89</time>
   <energy>
    <i name="e_fr_energy">   -894.03500676 </i>
    <i name="e_wo_entrp">   -894.01938951 </i>
    <i name="e_0_energy">   -894.02719814 </i>
   </energy>
  </scstep>
  <scstep>
   <time name="dav">  530.44  531.73</time>
   <time name="total">  543.32  544.64</time>
   <energy>
    <i name="e_fr_energy">   -894.07292547 </i>
    <i name="e_wo_entrp">   -894.05801715 </i>
    <i name="e_0_energy">   -894.06547131 </i>
   </energy>
  </scstep>
  <scstep>
   <time name="dav">  494.10  495.29</time>
   <time name="total">  506.65  507.87</time>
   <energy>
    <i name="e_fr_energy">   -894.27404759 </i>
    <i name="e_wo_entrp">   -894.25961086 </i>
    <i name="e_0_energy">   -894.26682922 </i>
   </energy>
  </scstep>
  <scstep>
   <time name="dav">  475.86  477.00</time>
   <time name="total">  488.17  489.35</time>
   <energy>
    <i name="e_fr_energy">   -894.63409972 </i>
    <i name="e_wo_entrp">   -894.62007914 </i>
    <i name="e_0_energy">   -894.62708943 </i>
   </energy>
  </scstep>
  <scstep>
   <time name="dav">  495.22  496.41</time>
   <time name="total">  507.70  508.93</time>
   <energy>
    <i name="e_fr_energy">   -894.94422531 </i>
    <i name="e_wo_entrp">   -894.93068836 </i>
    <i name="e_0_energy">   -894.93745684 </i>
   </energy>
  </scstep>
  <scstep>
   <time name="dav">  469.96  471.10</time>
   <time name="total">  482.72  483.89</time>
   <energy>
    <i name="e_fr_energy">   -895.06495844 </i>
    <i name="e_wo_entrp">   -895.05152882 </i>
    <i name="e_0_energy">   -895.05824363 </i>
   </energy>
  </scstep>
  <scstep>
   <time name="dav">  498.70  499.90</time>
   <time name="total">  511.52  512.75</time>
   <energy>
    <i name="e_fr_energy">   -895.09851750 </i>
    <i name="e_wo_entrp">   -895.08503235 </i>
    <i name="e_0_energy">   -895.09177493 </i>
   </energy>
  </scstep>
  <scstep>
   <time name="dav">  500.90  502.17</time>
   <time name="total">  513.70  515.00</time>
   <energy>
    <i name="e_fr_energy">   -895.12439815 </i>
    <i name="e_wo_entrp">   -895.11088201 </i>
    <i name="e_0_energy">   -895.11764008 </i>
   </energy>
  </scstep>
  <scstep>
   <time name="dav">  478.68  479.84</time>
   <time name="total">  490.91  492.09</time>
   <energy>
    <i name="e_fr_energy">   -895.13222589 </i>
    <i name="e_wo_entrp">   -895.11873879 </i>
    <i name="e_0_energy">   -895.12548234 </i>
   </energy>
  </scstep>
  <scstep>
   <time name="dav">  396.06  397.01</time>
   <time name="total">  408.48  409.47</time>
   <energy>
    <i name="e_fr_energy">   -895.13370703 </i>
    <i name="e_wo_entrp">   -895.12021939 </i>
    <i name="e_0_energy">   -895.12696321 </i>
   </energy>
  </scstep>
  <scstep>
   <time name="dav">  364.17  365.06</time>
   <time name="total">  376.47  377.39</time>
   <energy>
    <i name="e_fr_energy">   -895.13431375 </i>
    <i name="e_wo_entrp">   -895.12080248 </i>
    <i name="e_0_energy">   -895.12755812 </i>
   </energy>
  </scstep>
  <scstep>
   <time name="dav">  362.74  363.61</time>
   <time name="total">  376.33  377.24</time>
   <energy>
    <i name="e_fr_energy">   -895.13470390 </i>
    <i name="e_wo_entrp">   -895.12119111 </i>
    <i name="e_0_energy">   -895.12794750 </i>
   </energy>
  </scstep>
  <scstep>
   <time name="dav">  359.79  360.66</time>
   <time name="total">  372.42  373.33</time>
   <energy>
    <i name="e_fr_energy">   -895.13486061 </i>
    <i name="e_wo_entrp">   -895.12134827 </i>
    <i name="e_0_energy">   -895.12810444 </i>
   </energy>
  </scstep>
  <scstep>
   <time name="dav">  345.56  346.39</time>
   <time name="total">  358.22  359.08</time>
   <energy>
    <i name="e_fr_energy">   -895.13495368 </i>
    <i name="e_wo_entrp">   -895.12144000 </i>
    <i name="e_0_energy">   -895.12819684 </i>
   </energy>
  </scstep>
  <scstep>
   <time name="dav">  347.31  348.14</time>
   <time name="total">  359.90  360.76</time>
   <energy>
    <i name="e_fr_energy">   -895.13503261 </i>
    <i name="e_wo_entrp">   -895.12151901 </i>
    <i name="e_0_energy">   -895.12827581 </i>
   </energy>
  </scstep>
  <scstep>
   <time name="dav">  340.44  341.26</time>
   <time name="total">  352.97  353.82</time>
   <energy>
    <i name="e_fr_energy">   -895.13509866 </i>
    <i name="e_wo_entrp">   -895.12158665 </i>
    <i name="e_0_energy">   -895.12834265 </i>
   </energy>
  </scstep>
  <scstep>
   <time name="dav">  349.49  350.33</time>
   <time name="total">  362.08  362.95</time>
   <energy>
    <i name="e_fr_energy">   -895.13514697 </i>
    <i name="e_wo_entrp">   -895.12163649 </i>
    <i name="e_0_energy">   -895.12839173 </i>
   </energy>
  </scstep>
  <scstep>
   <time name="dav">  339.79  340.61</time>
   <time name="total">  352.37  353.22</time>
   <energy>
    <i name="e_fr_energy">   -895.13519441 </i>
    <i name="e_wo_entrp">   -895.12168195 </i>
    <i name="e_0_energy">   -895.12843818 </i>
   </energy>
  </scstep>
  <scstep>
   <time name="dav">  343.68  344.51</time>
   <time name="total">  356.51  357.38</time>
   <energy>
    <i name="e_fr_energy">   -895.13523651 </i>
    <i name="e_wo_entrp">   -895.12172175 </i>
    <i name="e_0_energy">   -895.12847913 </i>
   </energy>
  </scstep>
  <scstep>
   <time name="dav">  332.52  333.33</time>
   <time name="total">  345.33  346.16</time>
   <energy>
    <i name="e_fr_energy">   -895.13526896 </i>
    <i name="e_wo_entrp">   -895.12175298 </i>
    <i name="e_0_energy">   -895.12851097 </i>
   </energy>
  </scstep>
  <scstep>
   <time name="dav">  331.67  332.47</time>
   <time name="total">  344.40  345.23</time>
   <energy>
    <i name="e_fr_energy">   -895.13528325 </i>
    <i name="e_wo_entrp">   -895.12176715 </i>
    <i name="e_0_energy">   -895.12852520 </i>
   </energy>
  </scstep>
  <scstep>
   <time name="dav">  339.92  340.74</time>
   <time name="total">  354.79  355.64</time>
   <energy>
    <i name="e_fr_energy">   -895.13529579 </i>
    <i name="e_wo_entrp">   -895.12178022 </i>
    <i name="e_0_energy">   -895.12853800 </i>
   </energy>
  </scstep>
  <scstep>
   <time name="dav">  332.57  333.37</time>
   <time name="total">  333.57  334.38</time>
   <energy>
    <i name="alphaZ">   1018.42134492 </i>
    <i name="ewald"> 608939.29943622 </i>
    <i name="hartreedc">-666448.86833333 </i>
    <i name="XCdc">   2542.29363666 </i>
    <i name="pawpsdc">  99426.22792017 </i>
    <i name="pawaedc"> -99387.83719423 </i>
    <i name="eentropy">     -0.01351479 </i>
    <i name="bandstr">  -8717.55288172 </i>
    <i name="atom">  61732.89428039 </i>
    <i name="e_fr_energy">   -895.13530571 </i>
    <i name="e_wo_entrp">   -895.12179092 </i>
    <i name="e_0_energy">   -895.12854831 </i>
   </energy>
  </scstep>
  <structure>
   <crystal>
    <varray name="basis" >
     <v>      10.15022300       0.00000000       0.00000000 </v>
     <v>      -5.07509751       8.79036713       0.00000000 </v>
     <v>       0.00000000      -0.00005351      34.93840000 </v>
    </varray>
    <i name="volume">   3117.35032185 </i>
    <varray name="rec_basis" >
     <v>       0.09852000       0.05688029       0.00000009 </v>
     <v>       0.00000000       0.11376089       0.00000017 </v>
     <v>       0.00000000       0.00000000       0.02862180 </v>
    </varray>
   </crystal>
   <varray name="positions" >
    <v>       0.16662700       0.00000300       0.60990800 </v>
    <v>       0.16662700       0.50000300       0.60990800 </v>
    <v>       0.66662700       0.00000300       0.60990800 </v>
    <v>       0.66662700       0.50000300       0.60990800 </v>
    <v>       0.33337600       0.33337300       0.60990800 </v>
    <v>       0.33337600       0.83337300       0.60990800 </v>
    <v>       0.83337600       0.33337300       0.60990800 </v>
    <v>       0.83337600       0.83337300       0.60990800 </v>
    <v>       0.99999700       0.16662400       0.60990800 </v>
    <v>       0.99999700       0.66662400       0.60990800 </v>
    <v>       0.49999700       0.16662400       0.60990800 </v>
    <v>       0.49999700       0.66662400       0.60990800 </v>
    <v>       0.16705400       0.16709400       0.57396600 </v>
    <v>       0.16705400       0.66709400       0.57396600 </v>
    <v>       0.66705400       0.16709400       0.57396600 </v>
    <v>       0.66705400       0.66709400       0.57396600 </v>
    <v>       0.16671500       0.16671900       0.64584600 </v>
    <v>       0.16671500       0.66671900       0.64584600 </v>
    <v>       0.66671500       0.16671900       0.64584600 </v>
    <v>       0.66671500       0.66671900       0.64584600 </v>
    <v>       0.16664500       0.00000200       0.71070500 </v>
    <v>       0.16664500       0.50000200       0.71070500 </v>
    <v>       0.66664500       0.00000200       0.71070500 </v>
    <v>       0.66664500       0.50000200       0.71070500 </v>
    <v>       0.16579400       0.00011400       0.50939600 </v>
    <v>       0.16579400       0.50011400       0.50939600 </v>
    <v>       0.66579400       0.00011400       0.50939600 </v>
    <v>       0.66579400       0.50011400       0.50939600 </v>
    <v>       0.33290600       0.99996000       0.57396600 </v>
    <v>       0.33290600       0.49996000       0.57396600 </v>
    <v>       0.83290600       0.99996000       0.57396600 </v>
    <v>       0.83290600       0.49996000       0.57396600 </v>
    <v>       0.33328100       0.99999500       0.64584600 </v>
    <v>       0.33328100       0.49999500       0.64584600 </v>
    <v>       0.83328100       0.99999500       0.64584600 </v>
    <v>       0.83328100       0.49999500       0.64584600 </v>
    <v>       0.33335700       0.33335500       0.71070500 </v>
    <v>       0.33335700       0.83335500       0.71070500 </v>
    <v>       0.83335700       0.33335500       0.71070500 </v>
    <v>       0.83335700       0.83335500       0.71070500 </v>
    <v>       0.33432000       0.33420600       0.50939600 </v>
    <v>       0.33432000       0.83420600       0.50939600 </v>
    <v>       0.83432000       0.33420600       0.50939600 </v>
    <v>       0.83432000       0.83420600       0.50939600 </v>
    <v>       0.00004000       0.33294600       0.57396600 </v>
    <v>       0.00004000       0.83294600       0.57396600 </v>
    <v>       0.50004000       0.33294600       0.57396600 </v>
    <v>       0.50004000       0.83294600       0.57396600 </v>
    <v>       0.00000500       0.33328500       0.64584600 </v>
    <v>       0.00000500       0.83328500       0.64584600 </v>
    <v>       0.50000500       0.33328500       0.64584600 </v>
    <v>       0.50000500       0.83328500       0.64584600 </v>
    <v>       0.99999800       0.16664300       0.71070500 </v>
    <v>       0.99999800       0.66664300       0.71070500 </v>
    <v>       0.49999800       0.16664300       0.71070500 </v>
    <v>       0.49999800       0.66664300       0.71070500 </v>
    <v>       0.49988600       0.16568000       0.50939600 </v>
    <v>       0.49988600       0.66568000       0.50939600 </v>
    <v>       0.99988600       0.16568000       0.50939600 </v>
    <v>       0.99988600       0.66568000       0.50939600 </v>
    <v>       0.16665500       0.16665500       0.69612400 </v>
    <v>       0.16665500       0.66665500       0.69612400 </v>
    <v>       0.66665500       0.16665500       0.69612400 </v>
    <v>       0.66665500       0.66665500       0.69612400 </v>
    <v>       0.16734600       0.16737800       0.52372400 </v>
    <v>       0.16734600       0.66737800       0.52372400 </v>
    <v>       0.66734600       0.16737800       0.52372400 </v>
    <v>       0.66734600       0.66737800       0.52372400 </v>
    <v>       0.33334500       0.00000000       0.69612400 </v>
    <v>       0.33334500       0.50000000       0.69612400 </v>
    <v>       0.83334500       0.00000000       0.69612400 </v>
    <v>       0.83334500       0.50000000       0.69612400 </v>
    <v>       0.33262200       0.99996800       0.52372400 </v>
    <v>       0.33262200       0.49996800       0.52372400 </v>
    <v>       0.83262200       0.99996800       0.52372400 </v>
    <v>       0.83262200       0.49996800       0.52372400 </v>
    <v>       0.99999900       0.33334500       0.69612400 </v>
    <v>       0.99999900       0.83334500       0.69612400 </v>
    <v>       0.49999900       0.33334500       0.69612400 </v>
    <v>       0.49999900       0.83334500       0.69612400 </v>
    <v>       0.00003100       0.33265300       0.52372400 </v>
    <v>       0.00003100       0.83265300       0.52372400 </v>
    <v>       0.50003100       0.33265300       0.52372400 </v>
    <v>       0.50003100       0.83265300       0.52372400 </v>
    <v>       0.00000000       0.00000000       0.34945100 </v>
    <v>       0.00000000       0.50000000       0.34945100 </v>
    <v>       0.50000000       0.00000000       0.34945100 </v>
    <v>       0.50000000       0.50000000       0.34945100 </v>
    <v>       0.00000100       0.00000100       0.44108900 </v>
    <v>       0.00000100       0.50000100       0.44108900 </v>
    <v>       0.50000100       0.00000100       0.44108900 </v>
    <v>       0.50000100       0.50000100       0.44108900 </v>
    <v>       0.33333300       0.16666600       0.39481200 </v>
    <v>       0.33333300       0.66666600       0.39481200 </v>
    <v>       0.83333300       0.16666600       0.39481200 </v>
    <v>       0.83333300       0.66666600       0.39481200 </v>
    <v>       0.31846500       0.32466000       0.36219700 </v>
    <v>       0.31846500       0.82466000       0.36219700 </v>
    <v>       0.81846500       0.32466000       0.36219700 </v>
    <v>       0.81846500       0.82466000       0.36219700 </v>
    <v>       0.17534000       0.49380300       0.36219700 </v>
    <v>       0.17534000       0.99380300       0.36219700 </v>
    <v>       0.67534000       0.49380300       0.36219700 </v>
    <v>       0.67534000       0.99380300       0.36219700 </v>
    <v>       0.00619700       0.18153600       0.36219700 </v>
    <v>       0.00619700       0.68153600       0.36219700 </v>
    <v>       0.50619700       0.18153600       0.36219700 </v>
    <v>       0.50619700       0.68153600       0.36219700 </v>
    <v>       0.00625100       0.32480800       0.42718100 </v>
    <v>       0.00625100       0.82480800       0.42718100 </v>
    <v>       0.50625100       0.32480800       0.42718100 </v>
    <v>       0.50625100       0.82480800       0.42718100 </v>
    <v>       0.17519400       0.18144500       0.42718200 </v>
    <v>       0.17519400       0.68144500       0.42718200 </v>
    <v>       0.67519400       0.18144500       0.42718200 </v>
    <v>       0.67519400       0.68144500       0.42718200 </v>
    <v>       0.31855700       0.49374900       0.42718100 </v>
    <v>       0.31855700       0.99374900       0.42718100 </v>
    <v>       0.81855700       0.49374900       0.42718100 </v>
    <v>       0.81855700       0.99374900       0.42718100 </v>
    <v>       0.16666800       0.33333400       0.39464700 </v>
    <v>       0.16666800       0.83333400       0.39464700 </v>
    <v>       0.66666800       0.33333400       0.39464700 </v>
    <v>       0.66666800       0.83333400       0.39464700 </v>
    <v>       0.50637270       0.67156412       0.74815506 </v>
   </varray>
  </structure>
  <varray name="forces" >
   <v>       0.00030232      -0.00040110      -0.03071201 </v>
   <v>      -0.10874996       0.04702640      -0.08460742 </v>
   <v>       0.09809784       0.07207497      -0.08809787 </v>
   <v>       0.01068439      -0.11668343      -0.08291808 </v>
   <v>       0.09783729      -0.07171640      -0.08677300 </v>
   <v>      -0.10433197      -0.04798196      -0.08193040 </v>
   <v>      -0.00003674       0.00093632      -0.03070490 </v>
   <v>       0.01408926       0.12050636      -0.08699017 </v>
   <v>      -0.00331120      -0.00498008      -0.02387001 </v>
   <v>       0.00353783      -0.00073254      -0.02580381 </v>
   <v>      -0.00306031       0.00313247      -0.02528699 </v>
   <v>      -0.00166838      -0.00037169      -0.35463864 </v>
   <v>      -0.00151821       0.00227613       0.05366414 </v>
   <v>       0.00521467       0.00192010       0.05368933 </v>
   <v>      -0.00081963      -0.00271049       0.05473271 </v>
   <v>       0.03913997       0.00117805       0.04624562 </v>
   <v>       0.01049214       0.02193345       0.15769474 </v>
   <v>       0.00621978      -0.00216554       0.18388916 </v>
   <v>       0.01036269      -0.02517888       0.15854758 </v>
   <v>      -0.29033563      -0.00136276       0.66153618 </v>
   <v>       0.00573971      -0.00073571       0.12069618 </v>
   <v>       0.37169899       0.21622966       0.24434305 </v>
   <v>       0.02213961      -0.44006469       0.23600157 </v>
   <v>      -0.36751505       0.20932992       0.23961149 </v>
   <v>      -0.00752076      -0.00141439      -0.00168556 </v>
   <v>      -0.01536525      -0.00624101      -0.00409870 </v>
   <v>      -0.00828989       0.00668639      -0.00352367 </v>
   <v>      -0.00125118      -0.00509854      -0.00294695 </v>
   <v>       0.00255457      -0.00131667       0.05460932 </v>
   <v>      -0.01984850      -0.03227091       0.04136797 </v>
   <v>      -0.00269354      -0.00639341       0.05429074 </v>
   <v>      -0.00092186       0.00092418       0.05524044 </v>
   <v>       0.01610676      -0.02073122       0.15530438 </v>
   <v>       0.14637782       0.25027272       0.65996055 </v>
   <v>      -0.00272438      -0.00628081       0.18528417 </v>
   <v>      -0.02445039       0.00232809       0.15510942 </v>
   <v>       0.00444100       0.42201586       0.24259967 </v>
   <v>       0.36253779      -0.22192992       0.24237912 </v>
   <v>      -0.00474698      -0.00838222       0.12074167 </v>
   <v>      -0.39167174      -0.21380084       0.23512813 </v>
   <v>       0.00287117      -0.00060501      -0.00328383 </v>
   <v>      -0.00398635       0.01214563      -0.00378812 </v>
   <v>       0.00224236       0.00735783      -0.00170411 </v>
   <v>       0.01014125       0.01119226      -0.00356266 </v>
   <v>       0.00267213       0.00137695       0.05397512 </v>
   <v>      -0.00178858      -0.00056719       0.05559341 </v>
   <v>      -0.00059501       0.00656013       0.05417420 </v>
   <v>      -0.01921599       0.03369506       0.04459704 </v>
   <v>       0.01363217       0.02195315       0.15696006 </v>
   <v>      -0.02710297      -0.00132280       0.15757364 </v>
   <v>      -0.00558948       0.00679724       0.18477841 </v>
   <v>       0.14448397      -0.24982650       0.66090324 </v>
   <v>      -0.00366039       0.00539890       0.12274828 </v>
   <v>      -0.00830023       0.00841484       0.12318278 </v>
   <v>      -0.00000803       0.00515440       0.12313200 </v>
   <v>       0.06045950       0.08312102       2.59848176 </v>
   <v>       0.00436822      -0.00517382      -0.00174892 </v>
   <v>       0.00695523      -0.00806143      -0.01757321 </v>
   <v>       0.00445624      -0.00704965      -0.00200641 </v>
   <v>       0.00550154      -0.00618248      -0.00187938 </v>
   <v>      -0.10355659      -0.13239409      -0.30685379 </v>
   <v>      -0.18186024       0.00428089      -0.39466983 </v>
   <v>      -0.10660164       0.14946959      -0.30935667 </v>
   <v>       2.25822507      -0.01874436      -1.39017852 </v>
   <v>      -0.00625385      -0.01073825       0.00317192 </v>
   <v>       0.00041298      -0.01386295       0.00358711 </v>
   <v>      -0.00620991      -0.01687387       0.00252055 </v>
   <v>      -0.02376040      -0.01298351       0.01936253 </v>
   <v>      -0.07405500       0.16171635      -0.30516362 </v>
   <v>      -1.12792269      -1.92179358      -1.34830062 </v>
   <v>       0.09813318       0.18166459      -0.38940696 </v>
   <v>       0.16915674       0.02248674      -0.30604683 </v>
   <v>       0.01776905      -0.00223982       0.00238328 </v>
   <v>       0.02268900       0.01555778       0.02071460 </v>
   <v>       0.01213823      -0.00584405       0.00296576 </v>
   <v>       0.01236132       0.00086282       0.00252059 </v>
   <v>      -0.06180805      -0.16573960      -0.30563212 </v>
   <v>       0.18339668      -0.02884813      -0.30905123 </v>
   <v>       0.09860241      -0.17332516      -0.39351210 </v>
   <v>      -1.14846857       1.92049166      -1.38157635 </v>
   <v>      -0.00578737       0.01639588       0.00264430 </v>
   <v>      -0.01155969       0.01309747       0.00217359 </v>
   <v>      -0.01110586       0.01903188       0.00311588 </v>
   <v>      -0.00035040      -0.00100625       0.02028462 </v>
   <v>       0.00000427      -0.00006517       0.01883859 </v>
   <v>       0.00019438       0.00002464       0.01883978 </v>
   <v>       0.00018325      -0.00001798       0.01889754 </v>
   <v>      -0.00000931       0.00012557       0.01890115 </v>
   <v>      -0.00024985      -0.00024802      -0.00785747 </v>
   <v>       0.00038820      -0.00001174      -0.00780188 </v>
   <v>       0.00035375      -0.00058614      -0.00752393 </v>
   <v>      -0.00069591       0.00122839      -0.00525948 </v>
   <v>       0.00012049       0.00018615       0.02321162 </v>
   <v>       0.00035900       0.00001961       0.02348884 </v>
   <v>       0.00011935       0.00000558       0.02323061 </v>
   <v>      -0.00032165       0.00014549       0.02330216 </v>
   <v>       0.01062019      -0.00002335      -0.00786919 </v>
   <v>       0.01041718       0.00019191      -0.00773996 </v>
   <v>       0.01051476       0.00014860      -0.00770641 </v>
   <v>       0.01077521       0.00035784      -0.00799523 </v>
   <v>      -0.00581346       0.00916995      -0.00803715 </v>
   <v>      -0.00553573       0.00910826      -0.00779104 </v>
   <v>      -0.00541335       0.00905810      -0.00782472 </v>
   <v>      -0.00557789       0.00935602      -0.00798130 </v>
   <v>      -0.00505426      -0.00927008      -0.00768779 </v>
   <v>      -0.00504663      -0.00924361      -0.00768091 </v>
   <v>      -0.00502723      -0.00932093      -0.00773770 </v>
   <v>      -0.00513461      -0.00940180      -0.00800604 </v>
   <v>       0.00587617      -0.00787389      -0.00631835 </v>
   <v>       0.00623138      -0.00768849      -0.00627887 </v>
   <v>       0.00648883      -0.00803552      -0.00680772 </v>
   <v>       0.00602552      -0.00731132      -0.00708522 </v>
   <v>       0.00360744       0.00908521      -0.00801365 </v>
   <v>       0.00346148       0.00946354      -0.00816850 </v>
   <v>       0.00365697       0.00956715      -0.00814492 </v>
   <v>       0.00424951       0.01016219      -0.00944942 </v>
   <v>      -0.01052756      -0.00194703      -0.00726208 </v>
   <v>      -0.00983883      -0.00119452      -0.00631018 </v>
   <v>      -0.00944176      -0.00125037      -0.00614254 </v>
   <v>      -0.00949659      -0.00088167      -0.00620263 </v>
   <v>       0.00033300       0.00051683       0.00646038 </v>
   <v>       0.00003795      -0.00033290       0.00605919 </v>
   <v>      -0.00050749      -0.00030793       0.00618328 </v>
   <v>      -0.00018486      -0.00117751       0.00709808 </v>
   <v>      -0.05800530      -0.06659747      -0.63015555 </v>
  </varray>
  <varray name="stress" >
   <v>      -5.21613038      -0.02022551      -0.04872345 </v>
   <v>      -0.02022547      -5.26027416      -0.05409402 </v>
   <v>      -0.04872355      -0.05409397      -2.80643680 </v>
  </varray>
  <energy>
   <i name="e_fr_energy">   -915.32489033 </i>
   <i name="e_wo_entrp">   -915.31137555 </i>
   <i name="e_0_energy">   -915.31813294 </i>
  </energy>
  <time name="totalsc">21140.5521191.76</time>
 </calculation>
 <calculation>
  <scstep>
   <time name="dav">  417.13  418.13</time>
   <time name="total">  429.75  430.79</time>
   <energy>
    <i name="alphaZ">   1018.42134492 </i>
    <i name="ewald"> 608888.90999244 </i>
    <i name="hartreedc">-666395.89264256 </i>
    <i name="XCdc">   2542.29402670 </i>
    <i name="pawpsdc">  99426.22646402 </i>
    <i name="pawaedc"> -99387.83556039 </i>
    <i name="eentropy">     -0.00716648 </i>
    <i name="bandstr">  -8720.35238020 </i>
    <i name="atom">  61732.89428039 </i>
    <i name="e_fr_energy">   -895.34164115 </i>
    <i name="e_wo_entrp">   -895.33447467 </i>
    <i name="e_0_energy">   -895.33805791 </i>
   </energy>
  </scstep>
  <scstep>
   <time name="dav">  454.00  455.09</time>
   <time name="total">  465.89  467.01</time>
   <energy>
    <i name="e_fr_energy">   -895.51772854 </i>
    <i name="e_wo_entrp">   -895.51101521 </i>
    <i name="e_0_energy">   -895.51437187 </i>
   </energy>
  </scstep>
  <scstep>
   <time name="dav">  461.62  462.73</time>
   <time name="total">  473.36  474.50</time>
   <energy>
    <i name="e_fr_energy">   -895.55566526 </i>
    <i name="e_wo_entrp">   -895.54953883 </i>
    <i name="e_0_energy">   -895.55260204 </i>
   </energy>
  </scstep>
  <scstep>
   <time name="dav">  474.11  475.25</time>
   <time name="total">  485.55  486.72</time>
   <energy>
    <i name="e_fr_energy">   -895.57704892 </i>
    <i name="e_wo_entrp">   -895.57109736 </i>
    <i name="e_0_energy">   -895.57407314 </i>
   </energy>
  </scstep>
  <scstep>
   <time name="dav">  461.75  462.86</time>
   <time name="total">  473.68  474.82</time>
   <energy>
    <i name="e_fr_energy">   -895.58195429 </i>
    <i name="e_wo_entrp">   -895.57861514 </i>
    <i name="e_0_energy">   -895.58028471 </i>
   </energy>
  </scstep>
  <scstep>
   <time name="dav">  455.82  456.92</time>
   <time name="total">  467.82  468.94</time>
   <energy>
    <i name="e_fr_energy">   -895.59284186 </i>
    <i name="e_wo_entrp">   -895.59120852 </i>
    <i name="e_0_energy">   -895.59202519 </i>
   </energy>
  </scstep>
  <scstep>
   <time name="dav">  484.83  486.00</time>
   <time name="total">  496.30  497.50</time>
   <energy>
    <i name="e_fr_energy">   -895.60117050 </i>
    <i name="e_wo_entrp">   -895.60028025 </i>
    <i name="e_0_energy">   -895.60072537 </i>
   </energy>
  </scstep>
  <scstep>
   <time name="dav">  470.69  471.82</time>
   <time name="total">  482.86  484.02</time>
   <energy>
[...]
       <r>   -47.6485     0.0000    12.0000 </r>
       <r>   -47.3947     0.0000    12.0000 </r>
       <r>   -47.1409     0.0000    12.0000 </r>
       <r>   -46.8871     0.0000    12.0000 </r>
       <r>   -46.6333     0.0000    12.0000 </r>
       <r>   -46.3794     0.0000    12.0000 </r>
       <r>   -46.1256     0.0000    12.0000 </r>
       <r>   -45.8718     0.0000    12.0000 </r>
       <r>   -45.6180     0.0000    12.0000 </r>
       <r>   -45.3642     0.0000    12.0000 </r>
       <r>   -45.1104     0.0000    12.0000 </r>
       <r>   -44.8566     0.0000    12.0000 </r>
       <r>   -44.6028     0.0000    12.0000 </r>
       <r>   -44.3490     0.0000    12.0000 </r>
       <r>   -44.0952     0.0000    12.0000 </r>
       <r>   -43.8414     0.0000    12.0000 </r>
       <r>   -43.5876     0.0000    12.0000 </r>
       <r>   -43.3338     0.0000    12.0000 </r>
       <r>   -43.0800     0.0000    12.0000 </r>
       <r>   -42.8262     0.0000    12.0000 </r>
       <r>   -42.5724     0.0000    12.0000 </r>
       <r>   -42.3186     0.0000    12.0000 </r>
       <r>   -42.0648     0.0000    12.0000 </r>
       <r>   -41.8110     0.0000    12.0000 </r>
       <r>   -41.5572     0.0000    12.0000 </r>
       <r>   -41.3034     0.0000    12.0000 </r>
       <r>   -41.0496     0.0000    12.0000 </r>
       <r>   -40.7958     0.0000    12.0000 </r>
       <r>   -40.5420     0.0000    12.0000 </r>
       <r>   -40.2882     0.0000    12.0000 </r>
       <r>   -40.0344     0.0000    12.0000 </r>
       <r>   -39.7806     0.0000    12.0000 </r>
       <r>   -39.5268     0.0000    12.0000 </r>
       <r>   -39.2730     0.0000    12.0000 </r>
       <r>   -39.0192     0.0000    12.0000 </r>
       <r>   -38.7653     0.0000    12.0000 </r>
       <r>   -38.5115     0.0000    12.0000 </r>
       <r>   -38.2577     0.0000    12.0000 </r>
       <r>   -38.0039     0.0000    12.0000 </r>
       <r>   -37.7501     0.0000    12.0000 </r>
       <r>   -37.4963     0.0000    12.0000 </r>
       <r>   -37.2425     0.0000    12.0000 </r>
       <r>   -36.9887     0.0000    12.0000 </r>
       <r>   -36.7349     0.0000    12.0000 </r>
       <r>   -36.4811     0.0000    12.0000 </r>
       <r>   -36.2273     0.0000    12.0000 </r>
       <r>   -35.9735     6.8190    13.7307 </r>
       <r>   -35.7197    26.0551    20.3436 </r>
       <r>   -35.4659    22.2048    25.9792 </r>
       <r>   -35.2121    81.0163    46.5414 </r>
       <r>   -34.9583     5.7468    48.0000 </r>
       <r>   -34.7045     0.0000    48.0000 </r>
       <r>   -34.4507     0.0000    48.0000 </r>
       <r>   -34.1969     0.0000    48.0000 </r>
       <r>   -33.9431     0.0000    48.0000 </r>
       <r>   -33.6893     0.0000    48.0000 </r>
       <r>   -33.4355     0.0000    48.0000 </r>
       <r>   -33.1817     0.0000    48.0000 </r>
       <r>   -32.9279     0.0000    48.0000 </r>
       <r>   -32.6741     0.0000    48.0000 </r>
       <r>   -32.4203     0.0000    48.0000 </r>
       <r>   -32.1665     0.0000    48.0000 </r>
       <r>   -31.9127     0.0000    48.0000 </r>
       <r>   -31.6589     0.0000    48.0000 </r>
       <r>   -31.4050     0.0000    48.0000 </r>
       <r>   -31.1512     0.0000    48.0000 </r>
       <r>   -30.8974     0.0000    48.0000 </r>
       <r>   -30.6436     0.0000    48.0000 </r>
       <r>   -30.3898     0.0000    48.0000 </r>
       <r>   -30.1360     0.0000    48.0000 </r>
       <r>   -29.8822     0.0000    48.0000 </r>
       <r>   -29.6284     0.0000    48.0000 </r>
       <r>   -29.3746     0.0000    48.0000 </r>
       <r>   -29.1208     0.0000    48.0000 </r>
       <r>   -28.8670     0.0000    48.0000 </r>
       <r>   -28.6132     0.0000    48.0000 </r>
       <r>   -28.3594     0.0000    48.0000 </r>
       <r>   -28.1056     0.0000    48.0000 </r>
       <r>   -27.8518     0.0000    48.0000 </r>
       <r>   -27.5980     0.0000    48.0000 </r>
       <r>   -27.3442     0.0000    48.0000 </r>
       <r>   -27.0904     0.0000    48.0000 </r>
       <r>   -26.8366     0.0000    48.0000 </r>
       <r>   -26.5828     0.0000    48.0000 </r>
       <r>   -26.3290     0.0000    48.0000 </r>
       <r>   -26.0752     0.0000    48.0000 </r>
       <r>   -25.8214     0.0000    48.0000 </r>
       <r>   -25.5676     0.0000    48.0000 </r>
       <r>   -25.3138     0.0000    48.0000 </r>
       <r>   -25.0600     0.0000    48.0000 </r>
       <r>   -24.8062     0.0000    48.0000 </r>
       <r>   -24.5524     0.0000    48.0000 </r>
       <r>   -24.2986     0.0000    48.0000 </r>
       <r>   -24.0447     0.0000    48.0000 </r>
       <r>   -23.7909     0.0000    48.0000 </r>
       <r>   -23.5371     0.0000    48.0000 </r>
       <r>   -23.2833     0.0000    48.0000 </r>
       <r>   -23.0295     0.0000    48.0000 </r>
       <r>   -22.7757     0.0000    48.0000 </r>
       <r>   -22.5219     0.0000    48.0000 </r>
       <r>   -22.2681     0.0000    48.0000 </r>
       <r>   -22.0143     0.0000    48.0000 </r>
       <r>   -21.7605     0.0000    48.0000 </r>
       <r>   -21.5067     0.0000    48.0000 </r>
       <r>   -21.2529     0.0000    48.0000 </r>
       <r>   -20.9991     0.0000    48.0000 </r>
       <r>   -20.7453     0.0000    48.0000 </r>
       <r>   -20.4915     0.0000    48.0000 </r>
       <r>   -20.2377     0.0000    48.0000 </r>
       <r>   -19.9839     0.0000    48.0000 </r>
       <r>   -19.7301     0.0007    48.0002 </r>
       <r>   -19.4763     3.6544    48.9277 </r>
       <r>   -19.2225    12.7473    52.1630 </r>
       <r>   -18.9687     3.2979    53.0000 </r>
       <r>   -18.7149     0.0000    53.0000 </r>
       <r>   -18.4611     0.8463    53.2148 </r>
       <r>   -18.2073     6.6018    54.8904 </r>
       <r>   -17.9535     5.4334    56.2694 </r>
       <r>   -17.6997    12.2806    59.3863 </r>
       <r>   -17.4459    22.6427    65.1330 </r>
       <r>   -17.1921    32.4891    73.3789 </r>
       <r>   -16.9383     6.3949    75.0019 </r>
       <r>   -16.6845    12.8362    78.2598 </r>
       <r>   -16.4306    37.4828    87.7731 </r>
       <r>   -16.1768    12.6821    90.9918 </r>
       <r>   -15.9230    13.1336    94.3252 </r>
       <r>   -15.6692     8.8100    96.5612 </r>
       <r>   -15.4154     4.9603    97.8201 </r>
       <r>   -15.1616     4.9562    99.0780 </r>
       <r>   -14.9078    10.7312   101.8017 </r>
       <r>   -14.6540    21.9341   107.3686 </r>
       <r>   -14.4002    48.7777   119.7486 </r>
       <r>   -14.1464     0.9907   120.0000 </r>
       <r>   -13.8926     0.0000   120.0000 </r>
       <r>   -13.6388     0.0000   120.0000 </r>
       <r>   -13.3850     0.0000   120.0000 </r>
       <r>   -13.1312     0.0000   120.0000 </r>
       <r>   -12.8774     0.0000   120.0000 </r>
       <r>   -12.6236     0.0000   120.0000 </r>
       <r>   -12.3698     0.0000   120.0000 </r>
       <r>   -12.1160     0.0000   120.0000 </r>
       <r>   -11.8622     0.0000   120.0000 </r>
       <r>   -11.6084     0.0000   120.0000 </r>
       <r>   -11.3546     0.0000   120.0000 </r>
       <r>   -11.1008     0.0000   120.0000 </r>
       <r>   -10.8470     0.0000   120.0000 </r>
       <r>   -10.5932     0.0000   120.0000 </r>
       <r>   -10.3394     0.0000   120.0000 </r>
       <r>   -10.0856     0.4659   120.1183 </r>
       <r>    -9.8318     5.6544   121.5534 </r>
       <r>    -9.5780    11.8714   124.5664 </r>
       <r>    -9.3242    23.8038   130.6078 </r>
       <r>    -9.0703    13.5316   134.0422 </r>
       <r>    -8.8165    12.7900   137.2884 </r>
       <r>    -8.5627     4.3853   138.4014 </r>
       <r>    -8.3089     6.6868   140.0985 </r>
       <r>    -8.0551    10.8151   142.8434 </r>
       <r>    -7.8013    10.1391   145.4168 </r>
       <r>    -7.5475     7.7445   147.3823 </r>
       <r>    -7.2937     4.8962   148.6250 </r>
       <r>    -7.0399     5.4902   150.0184 </r>
       <r>    -6.7861    17.5186   154.4647 </r>
       <r>    -6.5323    20.5748   159.6867 </r>
       <r>    -6.2785    12.5546   162.8731 </r>
       <r>    -6.0247    26.6694   169.6419 </r>
       <r>    -5.7709    41.2295   180.1061 </r>
       <r>    -5.5171    44.6598   191.4409 </r>
       <r>    -5.2633    36.3212   200.6593 </r>
       <r>    -5.0095    25.4428   207.1168 </r>
       <r>    -4.7557    23.3084   213.0326 </r>
       <r>    -4.5019    36.4209   222.2763 </r>
       <r>    -4.2481    17.4502   226.7053 </r>
       <r>    -3.9943    20.2399   231.8422 </r>
       <r>    -3.7405    39.5969   241.8921 </r>
       <r>    -3.4867    38.8780   251.7594 </r>
       <r>    -3.2329    46.0956   263.4587 </r>
       <r>    -2.9791    39.2422   273.4185 </r>
       <r>    -2.7253    42.9380   284.3163 </r>
       <r>    -2.4715    47.3703   296.3391 </r>
       <r>    -2.2177    49.8380   308.9881 </r>
       <r>    -1.9639    49.0745   321.4434 </r>
       <r>    -1.7100    32.5667   329.7090 </r>
       <r>    -1.4562    35.0356   338.6011 </r>
       <r>    -1.2024    37.7621   348.1853 </r>
       <r>    -0.9486    45.4490   359.7204 </r>
       <r>    -0.6948    39.3099   369.6974 </r>
       <r>    -0.4410    25.5045   376.1705 </r>
       <r>    -0.1872    24.5642   382.4050 </r>
       <r>     0.0666     6.2844   384.0000 </r>
       <r>     0.3204     0.0000   384.0000 </r>
       <r>     0.5742     0.0000   384.0000 </r>
       <r>     0.8280     0.0000   384.0000 </r>
       <r>     1.0818     0.0000   384.0000 </r>
       <r>     1.3356     0.0000   384.0000 </r>
       <r>     1.5894     0.0000   384.0000 </r>
       <r>     1.8432     1.0990   384.2789 </r>
       <r>     2.0970     2.2887   384.8598 </r>
       <r>     2.3508    10.6181   387.5547 </r>
       <r>     2.6046    58.3882   402.3738 </r>
       <r>     2.8584    42.6387   413.1957 </r>
       <r>     3.1122    25.1565   419.5805 </r>
       <r>     3.3660    32.2505   427.7658 </r>
       <r>     3.6198    28.5218   435.0047 </r>
       <r>     3.8736    23.4701   440.9615 </r>
       <r>     4.1274    16.8250   445.2318 </r>
       <r>     4.3812    28.8080   452.5433 </r>
       <r>     4.6350    25.3438   458.9757 </r>
       <r>     4.8888    30.8036   466.7938 </r>
       <r>     5.1426    26.3811   473.4894 </r>
       <r>     5.3964    36.1736   482.6704 </r>
       <r>     5.6502    20.0052   487.7478 </r>
       <r>     5.9041    12.2947   490.8682 </r>
       <r>     6.1579    18.5232   495.5695 </r>
       <r>     6.4117    20.4318   500.7551 </r>
       <r>     6.6655    22.1462   506.3759 </r>
       <r>     6.9193    24.2029   512.5187 </r>
       <r>     7.1731    29.8618   520.0977 </r>
       <r>     7.4269    30.1777   527.7569 </r>
       <r>     7.6807    31.5325   535.7600 </r>
       <r>     7.9345     8.8257   538.0000 </r>
       <r>     8.1883     0.0000   538.0000 </r>
       <r>     8.4421     0.0000   538.0000 </r>
       <r>     8.6959     0.0000   538.0000 </r>
       <r>     8.9497     0.0000   538.0000 </r>
       <r>     9.2035     0.0000   538.0000 </r>
       <r>     9.4573     0.0000   538.0000 </r>
       <r>     9.7111     0.0000   538.0000 </r>
       <r>     9.9649     0.0000   538.0000 </r>
       <r>    10.2187     0.0000   538.0000 </r>
       <r>    10.4725     0.0000   538.0000 </r>
       <r>    10.7263     0.0000   538.0000 </r>
       <r>    10.9801     0.0000   538.0000 </r>
       <r>    11.2339     0.0000   538.0000 </r>
      </set>
     </set>
    </array>
   </total>
  </dos>
 </calculation>
 <structure name="finalpos" >
  <crystal>
   <varray name="basis" >
    <v>      10.15022300       0.00000000       0.00000000 </v>
    <v>      -5.07509751       8.79036713       0.00000000 </v>
    <v>       0.00000000      -0.00005351      34.93840000 </v>
   </varray>
   <i name="volume">   3117.35032185 </i>
   <varray name="rec_basis" >
    <v>       0.09852000       0.05688029       0.00000009 </v>
    <v>       0.00000000       0.11376089       0.00000017 </v>
    <v>       0.00000000       0.00000000       0.02862180 </v>
   </varray>
  </crystal>
  <varray name="positions" >
   <v>       0.16667366       0.00004580       0.61006135 </v>
   <v>       0.16637305       0.50022234       0.60993642 </v>
   <v>       0.66716571       0.00036211       0.60992404 </v>
   <v>       0.66650029       0.49955136       0.60992543 </v>
   <v>       0.33361030       0.33311426       0.60993635 </v>
   <v>       0.33294361       0.83323741       0.60992792 </v>
   <v>       0.83343401       0.33341360       0.61006127 </v>
   <v>       0.83375654       0.83390732       0.60992142 </v>
   <v>       0.00028507       0.16689652       0.61003976 </v>
   <v>      -0.00017611       0.66665201       0.61003528 </v>
   <v>       0.50003877       0.16642317       0.61003673 </v>
   <v>       0.50004856       0.66665542       0.60968089 </v>
   <v>       0.16716988       0.16712181       0.57421552 </v>
   <v>       0.16678725       0.66712435       0.57415244 </v>
   <v>       0.66718501       0.16715560       0.57420978 </v>
   <v>       0.66715300       0.66712782       0.57411902 </v>
   <v>       0.16700485       0.16696374       0.64601922 </v>
   <v>       0.16680690       0.66675619       0.64588573 </v>
   <v>       0.66678888       0.16655750       0.64601130 </v>
   <v>       0.66517304       0.66676524       0.64582508 </v>
   <v>       0.16681037       0.00011380       0.71119294 </v>
   <v>       0.16646998       0.49972048       0.71114167 </v>
   <v>       0.66680381       0.00051431       0.71111776 </v>
   <v>       0.66723355       0.50017099       0.71111691 </v>
   <v>       0.16576242       0.00011300       0.50957133 </v>
   <v>       0.16572867       0.50010662       0.50955474 </v>
   <v>       0.66580229       0.00015325       0.50954746 </v>
   <v>       0.66577727       0.50006226       0.50955027 </v>
   <v>       0.33283996       0.99991525       0.57421067 </v>
   <v>       0.33288298       0.49993474       0.57412947 </v>
   <v>       0.83326441       0.00031550       0.57414820 </v>
   <v>       0.83287623       0.49989092       0.57420908 </v>
   <v>       0.33331909       0.99980933       0.64601201 </v>
   <v>       0.33499483       0.50168149       0.64585545 </v>
   <v>       0.83332385       0.00001078       0.64587470 </v>
   <v>       0.83312695       0.50001411       0.64600939 </v>
   <v>       0.33310272       0.33309542       0.71114007 </v>
   <v>       0.33354963       0.83386566       0.71112233 </v>
   <v>       0.83349812       0.33345145       0.71119210 </v>
   <v>       0.83388151       0.83343241       0.71111378 </v>
   <v>       0.33433704       0.33419569       0.50955683 </v>
   <v>       0.33429103       0.83424493       0.50954830 </v>
   <v>       0.83435173       0.33423792       0.50957221 </v>
   <v>       0.83437899       0.83427161       0.50954532 </v>
   <v>       0.00007537       0.33304709       0.57421669 </v>
   <v>       0.00011074       0.83305767       0.57420804 </v>
   <v>       0.50007070       0.33265323       0.57415568 </v>
   <v>       0.50007680       0.83302549       0.57411978 </v>
   <v>       0.00027641       0.33357998       0.64601903 </v>
   <v>      -0.00013084       0.83335952       0.64600879 </v>
   <v>       0.50006924       0.33337777       0.64588323 </v>
   <v>       0.50008066       0.83173916       0.64583035 </v>
   <v>       0.99967195       0.16629465       0.71105529 </v>
   <v>       0.00064810       0.66676486       0.71104943 </v>
   <v>       0.50013888       0.16726506       0.71105050 </v>
   <v>       0.50025651       0.66686635       0.71202759 </v>
   <v>       0.49989404       0.16560098       0.50955884 </v>
   <v>       0.49988999       0.66566474       0.50951679 </v>
   <v>       0.99996602       0.16573566       0.50956097 </v>
   <v>       0.99983356       0.66566767       0.50955547 </v>
   <v>       0.16569694       0.16536682       0.69593468 </v>
   <v>       0.16644502       0.66678171       0.69567920 </v>
   <v>       0.66712148       0.16825243       0.69592414 </v>
   <v>       0.67554112       0.66681792       0.69458888 </v>
   <v>       0.16735865       0.16736772       0.52394901 </v>
   <v>       0.16730612       0.66738670       0.52388318 </v>
   <v>       0.66737801       0.16739796       0.52394284 </v>
   <v>       0.66736067       0.66736005       0.52386347 </v>
   <v>       0.33316152       0.00125540       0.69592698 </v>
   <v>       0.32485362       0.49147587       0.69463036 </v>
   <v>       0.83390862       0.00054279       0.69566270 </v>
   <v>       0.83463960       0.49979916       0.69592366 </v>
   <v>       0.33260201       0.99998399       0.52394438 </v>
   <v>       0.33261906       0.49997178       0.52386929 </v>
   <v>       0.83266876       0.00002642       0.52388043 </v>
   <v>       0.83263658       0.49996563       0.52394255 </v>
   <v>       0.99874866       0.33232102       0.69593289 </v>
   <v>       0.00162050       0.83373612       0.69592277 </v>
   <v>       0.50015413       0.33305190       0.69567435 </v>
   <v>       0.50019573       0.84217192       0.69459394 </v>
   <v>       0.00001807       0.33265865       0.52395043 </v>
   <v>       0.00003278       0.83266750       0.52394086 </v>
   <v>       0.50002730       0.33260957       0.52389030 </v>
   <v>       0.50000644       0.83267642       0.52386153 </v>
   <v>      -0.00000541      -0.00000820       0.34957270 </v>
   <v>      -0.00001179       0.49998841       0.34957238 </v>
   <v>       0.49998934      -0.00000831       0.34957467 </v>
   <v>       0.49998315       0.49999404       0.34957251 </v>
   <v>       0.00001210      -0.00000230       0.44108245 </v>
   <v>      -0.00002518       0.49997854       0.44108174 </v>
   <v>       0.49999249       0.00001554       0.44108206 </v>
   <v>       0.49998467       0.49998657       0.44107362 </v>
   <v>       0.33332534       0.16666184       0.39483890 </v>
   <v>       0.33331961       0.66665857       0.39483993 </v>
   <v>       0.83332403       0.16665671       0.39483985 </v>
   <v>       0.83332584       0.66665850       0.39483857 </v>
   <v>       0.31843277       0.32453548       0.36215970 </v>
   <v>       0.31843517       0.82452880       0.36215958 </v>
   <v>       0.81843275       0.32453018       0.36215757 </v>
   <v>       0.81843284       0.82453470       0.36216059 </v>
   <v>       0.17545013       0.49389303       0.36215893 </v>
   <v>       0.17545319       0.99389465       0.36215806 </v>
   <v>       0.67544118       0.49389381       0.36215869 </v>
   <v>       0.67544929       0.99389314       0.36216122 </v>
   <v>       0.00609607       0.18155191       0.36215943 </v>
   <v>       0.00609398       0.68154836       0.36215959 </v>
   <v>       0.50609414       0.18155409       0.36215993 </v>
   <v>       0.50609399       0.68155570       0.36216219 </v>
   <v>       0.00626683       0.32479283       0.42714057 </v>
   <v>       0.00626870       0.82479255       0.42713983 </v>
   <v>       0.50627132       0.32479681       0.42714413 </v>
   <v>       0.50627029       0.82480468       0.42714686 </v>
   <v>       0.17520082       0.18147664       0.42714127 </v>
   <v>       0.17518667       0.68146518       0.42714621 </v>
   <v>       0.67519908       0.18147799       0.42714130 </v>
   <v>       0.67519313       0.68147032       0.42714833 </v>
   <v>       0.31851261       0.49371756       0.42714538 </v>
   <v>       0.31851113       0.99371486       0.42714172 </v>
   <v>       0.81850992       0.49371575       0.42714044 </v>
   <v>       0.81852092       0.99371449       0.42714790 </v>
   <v>       0.16666511       0.33333267       0.39461729 </v>
   <v>       0.16666352       0.83333313       0.39461691 </v>
   <v>       0.66666580       0.33333261       0.39461699 </v>
   <v>       0.66666717       0.83333384       0.39461754 </v>
   <v>       0.50054075       0.66707766       0.74155432 </v>
  </varray>
 </structure>
</modeling>
