       N       E                     dE             d eps       ncg     rms          rms(c)
DAV:   1     0.783758495424E+04    0.78376E+04   -0.37605E+05 52824   0.132E+03
DAV:   2     0.111071186627E+03   -0.77265E+04   -0.72181E+04 60936   0.359E+02
DAV:   3    -0.945808780876E+03   -0.10569E+04   -0.10310E+04 60032   0.141E+02
DAV:   4    -0.996124000860E+03   -0.50315E+02   -0.49248E+02 61304   0.346E+01
DAV:   5    -0.998371303891E+03   -0.22473E+01   -0.22381E+01 73064   0.702E+00    0.167E+02
DAV:   6    -0.788509155954E+03    0.20986E+03   -0.93394E+02 67402   0.772E+01    0.987E+01
DAV:   7    -0.821402251192E+03   -0.32893E+02   -0.37149E+02 61410   0.107E+02    0.122E+02
DAV:   8    -0.828972511898E+03   -0.75703E+01   -0.10773E+02 63646   0.496E+01    0.905E+01
DAV:   9    -0.791712566957E+03    0.37260E+02   -0.19371E+02 68792   0.547E+01    0.701E+01
DAV:  10    -0.836334033035E+03   -0.44621E+02   -0.20065E+02 67138   0.595E+01    0.790E+01
DAV:  11    -0.789788659547E+03    0.46545E+02   -0.57222E+01 70770   0.303E+01    0.563E+01
DAV:  12    -0.762602411788E+03    0.27186E+02   -0.28774E+01 68168   0.365E+01    0.414E+01
DAV:  13    -0.762688985051E+03   -0.86573E-01   -0.45205E+01 69896   0.263E+01    0.360E+01
DAV:  14    -0.765916902046E+03   -0.32279E+01   -0.16378E+01 69448   0.187E+01    0.327E+01
DAV:  15    -0.769561324778E+03   -0.36444E+01   -0.21762E+01 67928   0.156E+01    0.323E+01
DAV:  16    -0.773026723831E+03   -0.34654E+01   -0.12886E+01 68008   0.111E+01    0.301E+01
DAV:  17    -0.776770212988E+03   -0.37435E+01   -0.97177E+00 70032   0.127E+01    0.246E+01
DAV:  18    -0.790793894462E+03   -0.14024E+02   -0.11237E+01 73504   0.900E+00    0.220E+01
DAV:  19    -0.797062362881E+03   -0.62685E+01   -0.41610E+00 67496   0.762E+00    0.186E+01
DAV:  20    -0.811004027840E+03   -0.13942E+02   -0.50855E+00 75224   0.100E+01    0.151E+01
DAV:  21    -0.824644019186E+03   -0.13640E+02   -0.59680E+00 65848   0.636E+00    0.134E+01
DAV:  22    -0.836717932013E+03   -0.12074E+02   -0.50686E+00 66144   0.701E+00    0.139E+01
DAV:  23    -0.838587933880E+03   -0.18700E+01   -0.10981E+00 66208   0.410E+00    0.123E+01
DAV:  24    -0.854443235994E+03   -0.15855E+02   -0.72834E+00 66856   0.728E+00    0.104E+01
DAV:  25    -0.867428184241E+03   -0.12985E+02   -0.87256E+00 65312   0.634E+00    0.880E+00
DAV:  26    -0.874816271590E+03   -0.73881E+01   -0.53751E+00 66640   0.514E+00    0.749E+00
DAV:  27    -0.878848131893E+03   -0.40319E+01   -0.32807E+00 71496   0.598E+00    0.687E+00
DAV:  28    -0.880867005878E+03   -0.20189E+01   -0.14897E+00 67680   0.477E+00    0.620E+00
DAV:  29    -0.882965842524E+03   -0.20988E+01   -0.99041E-01 69696   0.450E+00    0.486E+00
DAV:  30    -0.883897892388E+03   -0.93205E+00   -0.85583E-01 71376   0.381E+00    0.414E+00
DAV:  31    -0.884548632762E+03   -0.65074E+00   -0.47260E-01 67856   0.187E+00    0.367E+00
DAV:  32    -0.885801547777E+03   -0.12529E+01   -0.22335E-01 70464   0.324E+00    0.338E+00
DAV:  33    -0.886475174733E+03   -0.67363E+00   -0.47566E-01 69112   0.261E+00    0.310E+00
DAV:  34    -0.886637789516E+03   -0.16261E+00   -0.17339E-01 68736   0.232E+00    0.269E+00
DAV:  35    -0.886780618497E+03   -0.14283E+00   -0.95337E-02 73200   0.249E+00    0.224E+00
DAV:  36    -0.886886344942E+03   -0.10573E+00   -0.12298E-01 74856   0.314E+00    0.190E+00
DAV:  37    -0.887264996905E+03   -0.37865E+00   -0.20642E-01 69712   0.289E+00    0.142E+00
DAV:  38    -0.887680691766E+03   -0.41569E+00   -0.26108E-01 69424   0.171E+00    0.122E+00
DAV:  39    -0.887759101113E+03   -0.78409E-01   -0.78520E-02 66200   0.665E-01    0.110E+00
DAV:  40    -0.887865476193E+03   -0.10638E+00   -0.16244E-02 60264   0.365E-01    0.920E-01
DAV:  41    -0.888236039732E+03   -0.37056E+00   -0.84373E-03 72896   0.112E+00    0.755E-01
DAV:  42    -0.888666300800E+03   -0.43026E+00   -0.22559E-02 70822   0.526E-01    0.590E-01
DAV:  43    -0.888752728656E+03   -0.86428E-01   -0.50519E-03 70440   0.505E-01    0.492E-01
DAV:  44    -0.888818995958E+03   -0.66267E-01   -0.24927E-03 75584   0.635E-01    0.350E-01
DAV:  45    -0.888884014570E+03   -0.65019E-01   -0.47876E-03 75920   0.631E-01    0.228E-01
DAV:  46    -0.888926685267E+03   -0.42671E-01   -0.79872E-03 69504   0.285E-01    0.161E-01
DAV:  47    -0.888939640240E+03   -0.12955E-01   -0.30729E-03 58136   0.111E-01    0.177E-01
DAV:  48    -0.888948984768E+03   -0.93445E-02   -0.16273E-04 75016   0.610E-02    0.154E-01
DAV:  49    -0.888970218249E+03   -0.21233E-01   -0.22870E-04 76584   0.142E-01    0.109E-01
DAV:  50    -0.888988130906E+03   -0.17913E-01   -0.46909E-04 68536   0.176E-01    0.804E-02
DAV:  51    -0.888990880515E+03   -0.27496E-02   -0.45496E-04 66872   0.810E-02    0.696E-02
DAV:  52    -0.888991236695E+03   -0.35618E-03   -0.96137E-05 61840   0.241E-02    0.603E-02
DAV:  53    -0.888992270492E+03   -0.10338E-02   -0.63987E-06 40824   0.399E-02    0.505E-02
DAV:  54    -0.888994209296E+03   -0.19388E-02   -0.97326E-05 65104   0.903E-02    0.305E-02
DAV:  55    -0.888995135066E+03   -0.92577E-03   -0.17515E-04 72800   0.557E-02    0.272E-02
DAV:  56    -0.888994903949E+03    0.23112E-03   -0.79645E-05 65312   0.372E-02    0.229E-02
DAV:  57    -0.888995147313E+03   -0.24336E-03   -0.51918E-05 54600   0.134E-02    0.188E-02
DAV:  58    -0.888995411256E+03   -0.26394E-03   -0.25455E-06 38104   0.138E-02    0.154E-02
DAV:  59    -0.888995717792E+03   -0.30654E-03   -0.11280E-05 43752   0.305E-02    0.119E-02
DAV:  60    -0.888995795626E+03   -0.77834E-04   -0.43954E-05 58344   0.240E-02
   1 F= -.90910291E+03 E0= -.90910291E+03  d E =-.909103E+03  mag=    17.0013
       N       E                     dE             d eps       ncg     rms          rms(c)
DAV:   1    -0.888881367173E+03    0.11435E+00   -0.81720E+01 51276   0.109E+01    0.653E+00
DAV:   2    -0.889119095934E+03   -0.23773E+00   -0.28402E+00 69296   0.308E+00    0.292E+00
DAV:   3    -0.889128363308E+03   -0.92674E-02   -0.39692E-01 64512   0.204E+00    0.214E+00
DAV:   4    -0.889122673957E+03    0.56894E-02   -0.13711E-01 69264   0.184E+00    0.130E+00
DAV:   5    -0.889120673354E+03    0.20006E-02   -0.40114E-02 67264   0.734E-01    0.595E-01
DAV:   6    -0.889121990283E+03   -0.13169E-02   -0.17899E-02 62944   0.494E-01    0.455E-01
DAV:   7    -0.889122785687E+03   -0.79540E-03   -0.63692E-03 69840   0.268E-01    0.296E-01
DAV:   8    -0.889123011343E+03   -0.22566E-03   -0.12625E-03 64944   0.133E-01    0.141E-01
DAV:   9    -0.889123464624E+03   -0.45328E-03   -0.89668E-04 68032   0.800E-02    0.101E-01
DAV:  10    -0.889123748735E+03   -0.28411E-03   -0.25247E-04 64280   0.649E-02    0.625E-02
DAV:  11    -0.889123986872E+03   -0.23814E-03   -0.19707E-04 66304   0.418E-02    0.513E-02
DAV:  12    -0.889124170064E+03   -0.18319E-03   -0.91765E-05 63496   0.342E-02    0.433E-02
DAV:  13    -0.889124349803E+03   -0.17974E-03   -0.72378E-05 66464   0.373E-02    0.364E-02
DAV:  14    -0.889124621041E+03   -0.27124E-03   -0.27194E-04 76504   0.908E-02    0.265E-02
DAV:  15    -0.889124782823E+03   -0.16178E-03   -0.26357E-04 67080   0.512E-02    0.280E-02
DAV:  16    -0.889124859235E+03   -0.76412E-04   -0.86189E-05 60048   0.253E-02    0.216E-02
DAV:  17    -0.889124903568E+03   -0.44333E-04   -0.18301E-05 46920   0.283E-02    0.170E-02
DAV:  18    -0.889124946696E+03   -0.43129E-04   -0.81344E-05 64456   0.427E-02    0.124E-02
DAV:  19    -0.889124995893E+03   -0.49197E-04   -0.83747E-05 61592   0.258E-02    0.125E-02
DAV:  20    -0.889125013901E+03   -0.18008E-04   -0.22157E-05 45352   0.923E-03    0.130E-02
DAV:  21    -0.889125008649E+03    0.52520E-05   -0.24009E-06 33752   0.676E-03
   2 F= -.90923475E+03 E0= -.90923475E+03  d E =-.131839E+00  mag=    17.0002
       N       E                     dE             d eps       ncg     rms          rms(c)
DAV:   1    -0.889211143448E+03   -0.86130E-01   -0.13738E+01 51264   0.448E+00    0.235E+00
DAV:   2    -0.889250319648E+03   -0.39176E-01   -0.49199E-01 70960   0.141E+00    0.144E+00
DAV:   3    -0.889252546101E+03   -0.22265E-02   -0.76526E-02 65904   0.101E+00    0.924E-01
DAV:   4    -0.889250884350E+03    0.16618E-02   -0.34569E-02 70520   0.869E-01    0.758E-01
DAV:   5    -0.889250249302E+03    0.63505E-03   -0.87375E-03 65392   0.316E-01    0.262E-01
DAV:   6    -0.889250548591E+03   -0.29929E-03   -0.32261E-03 64432   0.174E-01    0.182E-01
DAV:   7    -0.889250648136E+03   -0.99545E-04   -0.10455E-03 67504   0.110E-01    0.977E-02
DAV:   8    -0.889250706076E+03   -0.57940E-04   -0.27392E-04 61344   0.507E-02    0.629E-02
DAV:   9    -0.889250782748E+03   -0.76672E-04   -0.13866E-04 65504   0.267E-02    0.420E-02
DAV:  10    -0.889250848766E+03   -0.66018E-04   -0.48099E-05 60928   0.303E-02    0.304E-02
DAV:  11    -0.889250899676E+03   -0.50909E-04   -0.44830E-05 60424   0.223E-02    0.228E-02
DAV:  12    -0.889250934016E+03   -0.34341E-04   -0.19300E-05 47488   0.154E-02    0.189E-02
DAV:  13    -0.889250978438E+03   -0.44422E-04   -0.12747E-05 42848   0.230E-02    0.146E-02
DAV:  14    -0.889251025453E+03   -0.47016E-04   -0.75691E-05 63424   0.338E-02    0.132E-02
DAV:  15    -0.889251063384E+03   -0.37930E-04   -0.64449E-05 62464   0.247E-02    0.128E-02
DAV:  16    -0.889251080923E+03   -0.17540E-04   -0.20548E-05 46384   0.993E-03    0.121E-02
DAV:  17    -0.889251092570E+03   -0.11647E-04   -0.26545E-06 36736   0.116E-02    0.977E-03
DAV:  18    -0.889251107554E+03   -0.14984E-04   -0.35784E-05 48528   0.383E-02    0.779E-03
DAV:  19    -0.889251132198E+03   -0.24644E-04   -0.52436E-05 55088   0.146E-02    0.901E-03
DAV:  20    -0.889251137884E+03   -0.56860E-05   -0.65280E-06 36808   0.485E-03
   3 F= -.90936069E+03 E0= -.90936069E+03  d E =-.257787E+00  mag=    17.0000
       N       E                     dE             d eps       ncg     rms          rms(c)
DAV:   1    -0.889212246845E+03    0.38885E-01   -0.46399E+01 51264   0.827E+00    0.274E+00
DAV:   2    -0.889349160948E+03   -0.13691E+00   -0.13282E+00 68416   0.219E+00    0.152E+00
DAV:   3    -0.889358245643E+03   -0.90847E-02   -0.11499E-01 61096   0.120E+00    0.126E+00
DAV:   4    -0.889355826702E+03    0.24189E-02   -0.16402E-02 67216   0.532E-01    0.742E-01
DAV:   5    -0.889355047109E+03    0.77959E-03   -0.10220E-02 70656   0.367E-01    0.415E-01
DAV:   6    -0.889355536712E+03   -0.48960E-03   -0.77905E-03 66576   0.307E-01    0.185E-01
DAV:   7    -0.889355604275E+03   -0.67563E-04   -0.15624E-03 67960   0.134E-01    0.108E-01
DAV:   8    -0.889355722991E+03   -0.11872E-03   -0.39539E-04 65592   0.533E-02    0.672E-02
DAV:   9    -0.889355833346E+03   -0.11035E-03   -0.12136E-04 63200   0.411E-02    0.545E-02
DAV:  10    -0.889355946018E+03   -0.11267E-03   -0.85996E-05 65224   0.351E-02    0.307E-02
DAV:  11    -0.889356030150E+03   -0.84132E-04   -0.36890E-05 57064   0.203E-02    0.252E-02
DAV:  12    -0.889356112403E+03   -0.82253E-04   -0.17411E-05 46504   0.188E-02    0.192E-02
DAV:  13    -0.889356208962E+03   -0.96559E-04   -0.25697E-05 50016   0.263E-02    0.155E-02
DAV:  14    -0.889356293262E+03   -0.84300E-04   -0.74873E-05 64640   0.284E-02    0.144E-02
DAV:  15    -0.889356355273E+03   -0.62010E-04   -0.42039E-05 59368   0.286E-02    0.119E-02
DAV:  16    -0.889356400094E+03   -0.44821E-04   -0.51415E-05 61520   0.312E-02    0.102E-02
DAV:  17    -0.889356431967E+03   -0.31872E-04   -0.50837E-05 59960   0.277E-02    0.938E-03
DAV:  18    -0.889356455677E+03   -0.23710E-04   -0.36707E-05 54784   0.186E-02    0.839E-03
DAV:  19    -0.889356465013E+03   -0.93365E-05   -0.14672E-05 43216   0.717E-03
   4 F= -.90946658E+03 E0= -.90946658E+03  d E =-.105885E+00  mag=    17.0000
       N       E                     dE             d eps       ncg     rms          rms(c)
DAV:   1    -0.889353946590E+03    0.25091E-02   -0.19335E+00 51324   0.169E+00    0.558E-01
DAV:   2    -0.889359004755E+03   -0.50582E-02   -0.51106E-02 66232   0.453E-01    0.310E-01
DAV:   3    -0.889359588837E+03   -0.58408E-03   -0.49639E-03 58466   0.262E-01    0.246E-01
DAV:   4    -0.889359499601E+03    0.89235E-04   -0.72456E-04 61016   0.119E-01    0.141E-01
DAV:   5    -0.889359512042E+03   -0.12440E-04   -0.38225E-04 67960   0.644E-02    0.738E-02
DAV:   6    -0.889359548749E+03   -0.36707E-04   -0.26742E-04 65232   0.539E-02    0.363E-02
DAV:   7    -0.889359557396E+03   -0.86467E-05   -0.66290E-05 59208   0.277E-02
   5 F= -.90946978E+03 E0= -.90946978E+03  d E =-.109084E+00  mag=    17.0000
       N       E                     dE             d eps       ncg     rms          rms(c)
DAV:   1    -0.889309610171E+03    0.49939E-01   -0.31033E+01 51264   0.697E+00    0.236E+00
DAV:   2    -0.889388907373E+03   -0.79297E-01   -0.66647E-01 65400   0.146E+00    0.130E+00
DAV:   3    -0.889401627587E+03   -0.12720E-01   -0.63095E-02 60232   0.748E-01    0.842E-01
DAV:   4    -0.889400389337E+03    0.12382E-02   -0.11562E-02 69416   0.553E-01    0.541E-01
DAV:   5    -0.889400674251E+03   -0.28491E-03   -0.83668E-03 68512   0.309E-01    0.260E-01
DAV:   6    -0.889401159914E+03   -0.48566E-03   -0.40603E-03 62808   0.247E-01    0.193E-01
DAV:   7    -0.889401349447E+03   -0.18953E-03   -0.13328E-03 69808   0.133E-01    0.920E-02
DAV:   8    -0.889401525560E+03   -0.17611E-03   -0.21321E-04 66040   0.663E-02    0.574E-02
DAV:   9    -0.889401741306E+03   -0.21575E-03   -0.15010E-04 64544   0.452E-02    0.486E-02
DAV:  10    -0.889401970541E+03   -0.22924E-03   -0.75939E-05 65072   0.322E-02    0.312E-02
DAV:  11    -0.889402117421E+03   -0.14688E-03   -0.48648E-05 60520   0.220E-02    0.257E-02
DAV:  12    -0.889402227184E+03   -0.10976E-03   -0.19541E-05 49256   0.187E-02    0.220E-02
DAV:  13    -0.889402349042E+03   -0.12186E-03   -0.23753E-05 48560   0.210E-02    0.179E-02
DAV:  14    -0.889402526498E+03   -0.17746E-03   -0.97820E-05 61488   0.513E-02    0.122E-02
DAV:  15    -0.889402605074E+03   -0.78576E-04   -0.12454E-04 63624   0.273E-02    0.131E-02
DAV:  16    -0.889402631058E+03   -0.25984E-04   -0.22343E-05 48928   0.123E-02    0.101E-02
DAV:  17    -0.889402643749E+03   -0.12691E-04   -0.57937E-06 38464   0.818E-03    0.876E-03
DAV:  18    -0.889402657983E+03   -0.14234E-04   -0.52995E-06 39992   0.171E-02    0.607E-03
DAV:  19    -0.889402680704E+03   -0.22721E-04   -0.23480E-05 48952   0.125E-02    0.601E-03
DAV:  20    -0.889402690294E+03   -0.95897E-05   -0.78156E-06 40320   0.684E-03
   6 F= -.90951551E+03 E0= -.90951551E+03  d E =-.457308E-01  mag=    17.0000
       N       E                     dE             d eps       ncg     rms          rms(c)
DAV:   1    -0.889402714643E+03   -0.33938E-04   -0.11534E-01 52264   0.424E-01    0.145E-01
DAV:   2    -0.889402939387E+03   -0.22474E-03   -0.24314E-03 64752   0.923E-02    0.816E-02
DAV:   3    -0.889403041050E+03   -0.10166E-03   -0.26597E-04 56904   0.543E-02    0.513E-02
DAV:   4    -0.889403041266E+03   -0.21647E-06   -0.56457E-05 51280   0.388E-02    0.357E-02
DAV:   5    -0.889403049278E+03   -0.80116E-05   -0.31795E-05 51040   0.190E-02    0.155E-02
DAV:   6    -0.889403059801E+03   -0.10523E-04   -0.18297E-05 45904   0.164E-02    0.132E-02
DAV:   7    -0.889403064451E+03   -0.46496E-05   -0.77686E-06 37560   0.884E-03
   7 F= -.90951572E+03 E0= -.90951572E+03  d E =-.459432E-01  mag=    17.0000
       N       E                     dE             d eps       ncg     rms          rms(c)
DAV:   1    -0.889352584410E+03    0.50475E-01   -0.26993E+01 51264   0.637E+00    0.213E+00
DAV:   2    -0.889422209399E+03   -0.69625E-01   -0.52895E-01 61688   0.130E+00    0.125E+00
DAV:   3    -0.889435570996E+03   -0.13362E-01   -0.39304E-02 59112   0.627E-01    0.806E-01
DAV:   4    -0.889435206281E+03    0.36472E-03   -0.60094E-03 66216   0.358E-01    0.512E-01
DAV:   5    -0.889435806942E+03   -0.60066E-03   -0.54198E-03 69040   0.280E-01    0.230E-01
DAV:   6    -0.889436316638E+03   -0.50970E-03   -0.32776E-03 65344   0.210E-01    0.162E-01
DAV:   7    -0.889436442013E+03   -0.12538E-03   -0.88757E-04 68168   0.115E-01    0.651E-02
DAV:   8    -0.889436590365E+03   -0.14835E-03   -0.14797E-04 64136   0.438E-02    0.486E-02
DAV:   9    -0.889436757689E+03   -0.16732E-03   -0.93358E-05 62128   0.339E-02    0.344E-02
DAV:  10    -0.889436944791E+03   -0.18710E-03   -0.40444E-05 59048   0.234E-02    0.229E-02
DAV:  11    -0.889437052076E+03   -0.10728E-03   -0.28894E-05 53336   0.155E-02    0.202E-02
DAV:  12    -0.889437147154E+03   -0.95078E-04   -0.80564E-06 40312   0.148E-02    0.164E-02
DAV:  13    -0.889437266530E+03   -0.11938E-03   -0.14069E-05 44232   0.175E-02    0.131E-02
DAV:  14    -0.889437413684E+03   -0.14715E-03   -0.38893E-05 51304   0.317E-02    0.910E-03
DAV:  15    -0.889437481058E+03   -0.67374E-04   -0.10223E-04 60144   0.201E-02    0.112E-02
DAV:  16    -0.889437502764E+03   -0.21706E-04   -0.13152E-05 45320   0.851E-03    0.824E-03
DAV:  17    -0.889437515862E+03   -0.13098E-04   -0.27232E-06 37136   0.819E-03    0.737E-03
DAV:  18    -0.889437532221E+03   -0.16358E-04   -0.41134E-06 39376   0.154E-02    0.527E-03
DAV:  19    -0.889437553031E+03   -0.20810E-04   -0.27272E-05 51112   0.132E-02    0.513E-03
DAV:  20    -0.889437560346E+03   -0.73150E-05   -0.85644E-06 41272   0.599E-03
   8 F= -.90955340E+03 E0= -.90955340E+03  d E =-.376793E-01  mag=    17.0000
       N       E                     dE             d eps       ncg     rms          rms(c)
DAV:   1    -0.889436822366E+03    0.73067E-03   -0.22585E-01 52088   0.581E-01    0.195E-01
DAV:   2    -0.889437267233E+03   -0.44487E-03   -0.43758E-03 63320   0.120E-01    0.115E-01
DAV:   3    -0.889437506367E+03   -0.23913E-03   -0.34376E-04 57680   0.614E-02    0.700E-02
DAV:   4    -0.889437515227E+03   -0.88607E-05   -0.72837E-05 55416   0.408E-02    0.496E-02
DAV:   5    -0.889437529482E+03   -0.14254E-04   -0.51860E-05 57640   0.288E-02    0.195E-02
DAV:   6    -0.889437537825E+03   -0.83436E-05   -0.28515E-05 48176   0.211E-02
   9 F= -.90955367E+03 E0= -.90955367E+03  d E =-.379539E-01  mag=    17.0000
       N       E                     dE             d eps       ncg     rms          rms(c)
DAV:   1    -0.889380644171E+03    0.56885E-01   -0.24978E+01 51264   0.655E+00    0.203E+00
DAV:   2    -0.889442990824E+03   -0.62347E-01   -0.49034E-01 61920   0.131E+00    0.118E+00
DAV:   3    -0.889455204484E+03   -0.12214E-01   -0.34415E-02 59512   0.605E-01    0.648E-01
DAV:   4    -0.889454953819E+03    0.25067E-03   -0.50539E-03 67616   0.312E-01    0.392E-01
DAV:   5    -0.889455554150E+03   -0.60033E-03   -0.43441E-03 61416   0.134E-01    0.156E-01
DAV:   6    -0.889455888356E+03   -0.33421E-03   -0.89613E-04 64752   0.763E-02    0.764E-02
DAV:   7    -0.889456009295E+03   -0.12094E-03   -0.32402E-04 66712   0.627E-02    0.481E-02
DAV:   8    -0.889456116333E+03   -0.10704E-03   -0.68323E-05 58368   0.289E-02    0.301E-02
DAV:   9    -0.889456240362E+03   -0.12403E-03   -0.31583E-05 52376   0.182E-02    0.200E-02
DAV:  10    -0.889456360352E+03   -0.11999E-03   -0.19553E-05 47608   0.157E-02    0.144E-02
DAV:  11    -0.889456434673E+03   -0.74320E-04   -0.14740E-05 45000   0.105E-02    0.127E-02
DAV:  12    -0.889456498426E+03   -0.63753E-04   -0.54152E-06 38488   0.894E-03    0.109E-02
DAV:  13    -0.889456603707E+03   -0.10528E-03   -0.37843E-06 39840   0.134E-02    0.815E-03
DAV:  14    -0.889456702883E+03   -0.99175E-04   -0.26607E-05 49648   0.167E-02    0.646E-03
DAV:  15    -0.889456750731E+03   -0.47849E-04   -0.28539E-05 52056   0.115E-02    0.623E-03
DAV:  16    -0.889456767954E+03   -0.17223E-04   -0.62387E-06 39672   0.598E-03    0.572E-03
DAV:  17    -0.889456782200E+03   -0.14246E-04   -0.13590E-06 37304   0.545E-03    0.497E-03
DAV:  18    -0.889456803268E+03   -0.21068E-04   -0.33093E-06 39320   0.120E-02    0.374E-03
DAV:  19    -0.889456819593E+03   -0.16325E-04   -0.11918E-05 41928   0.920E-03    0.416E-03
DAV:  20    -0.889456826334E+03   -0.67415E-05   -0.81125E-06 40712   0.538E-03
  10 F= -.90957724E+03 E0= -.90957724E+03  d E =-.235691E-01  mag=    17.0000
       N       E                     dE             d eps       ncg     rms          rms(c)
DAV:   1    -0.889456695221E+03    0.12437E-03   -0.40642E-01 51976   0.835E-01    0.260E-01
DAV:   2    -0.889457466121E+03   -0.77090E-03   -0.79285E-03 64408   0.168E-01    0.150E-01
DAV:   3    -0.889457849103E+03   -0.38298E-03   -0.59405E-04 60552   0.854E-02    0.810E-02
DAV:   4    -0.889457854550E+03   -0.54477E-05   -0.12478E-04 59888   0.530E-02    0.547E-02
DAV:   5    -0.889457877170E+03   -0.22620E-04   -0.86165E-05 62744   0.325E-02    0.224E-02
DAV:   6    -0.889457897689E+03   -0.20519E-04   -0.31800E-05 49072   0.234E-02    0.157E-02
DAV:   7    -0.889457904041E+03   -0.63521E-05   -0.91741E-06 38104   0.112E-02
  11 F= -.90957777E+03 E0= -.90957777E+03  d E =-.240948E-01  mag=    17.0000
       N       E                     dE             d eps       ncg     rms          rms(c)
DAV:   1    -0.889425658850E+03    0.32239E-01   -0.16623E+01 51264   0.506E+00    0.165E+00
DAV:   2    -0.889467892935E+03   -0.42234E-01   -0.32121E-01 61320   0.100E+00    0.946E-01
DAV:   3    -0.889477212593E+03   -0.93197E-02   -0.22174E-02 59944   0.511E-01    0.520E-01
DAV:   4    -0.889477241744E+03   -0.29152E-04   -0.39431E-03 64208   0.290E-01    0.319E-01
DAV:   5    -0.889477718245E+03   -0.47650E-03   -0.32180E-03 66672   0.191E-01    0.149E-01
DAV:   6    -0.889477995063E+03   -0.27682E-03   -0.16380E-03 65960   0.146E-01    0.940E-02
DAV:   7    -0.889478044776E+03   -0.49714E-04   -0.37118E-04 66624   0.704E-02    0.498E-02
DAV:   8    -0.889478107555E+03   -0.62779E-04   -0.76837E-05 61152   0.235E-02    0.320E-02
DAV:   9    -0.889478190334E+03   -0.82779E-04   -0.38670E-05 55192   0.236E-02    0.280E-02
DAV:  10    -0.889478257688E+03   -0.67354E-04   -0.20661E-05 48024   0.167E-02    0.157E-02
DAV:  11    -0.889478307170E+03   -0.49481E-04   -0.12299E-05 43720   0.102E-02    0.134E-02
DAV:  12    -0.889478342087E+03   -0.34917E-04   -0.77082E-06 39760   0.819E-03    0.116E-02
DAV:  13    -0.889478379264E+03   -0.37177E-04   -0.46196E-06 38440   0.870E-03    0.946E-03
DAV:  14    -0.889478440717E+03   -0.61454E-04   -0.56065E-06 40648   0.192E-02    0.631E-03
DAV:  15    -0.889478469697E+03   -0.28979E-04   -0.41468E-05 55016   0.113E-02    0.682E-03
DAV:  16    -0.889478482526E+03   -0.12829E-04   -0.46355E-06 38512   0.684E-03    0.506E-03
DAV:  17    -0.889478491267E+03   -0.87410E-05   -0.42715E-06 37872   0.630E-03
  12 F= -.90960179E+03 E0= -.90960179E+03  d E =-.240186E-01  mag=    17.0000
       N       E                     dE             d eps       ncg     rms          rms(c)
DAV:   1    -0.889475916880E+03    0.25656E-02   -0.82221E-01 51900   0.112E+00    0.369E-01
DAV:   2    -0.889477711647E+03   -0.17948E-02   -0.15905E-02 62384   0.227E-01    0.210E-01
DAV:   3    -0.889478408210E+03   -0.69656E-03   -0.11355E-03 58986   0.119E-01    0.116E-01
DAV:   4    -0.889478423174E+03   -0.14964E-04   -0.23220E-04 60032   0.716E-02    0.720E-02
DAV:   5    -0.889478469402E+03   -0.46228E-04   -0.17093E-04 64920   0.464E-02    0.338E-02
DAV:   6    -0.889478493195E+03   -0.23793E-04   -0.81719E-05 59960   0.330E-02    0.217E-02
DAV:   7    -0.889478498167E+03   -0.49729E-05   -0.16863E-05 41176   0.152E-02
  13 F= -.90960257E+03 E0= -.90960257E+03  d E =-.248044E-01  mag=    17.0000
       N       E                     dE             d eps       ncg     rms          rms(c)
DAV:   1    -0.889472425786E+03    0.60674E-02   -0.42278E+00 51264   0.272E+00    0.811E-01
DAV:   2    -0.889482388972E+03   -0.99632E-02   -0.97083E-02 66448   0.606E-01    0.468E-01
DAV:   3    -0.889485091207E+03   -0.27022E-02   -0.75265E-03 59176   0.283E-01    0.327E-01
DAV:   4    -0.889485048897E+03    0.42310E-04   -0.10309E-03 67280   0.133E-01    0.187E-01
DAV:   5    -0.889485241302E+03   -0.19240E-03   -0.10091E-03 64952   0.841E-02    0.105E-01
DAV:   6    -0.889485334116E+03   -0.92814E-04   -0.55284E-04 62464   0.940E-02    0.682E-02
DAV:   7    -0.889485352486E+03   -0.18370E-04   -0.13731E-04 65992   0.485E-02    0.310E-02
DAV:   8    -0.889485376150E+03   -0.23664E-04   -0.19258E-05 44592   0.196E-02    0.169E-02
DAV:   9    -0.889485400225E+03   -0.24075E-04   -0.22909E-05 48064   0.189E-02    0.180E-02
DAV:  10    -0.889485418008E+03   -0.17783E-04   -0.10326E-05 39912   0.895E-03    0.102E-02
DAV:  11    -0.889485432343E+03   -0.14335E-04   -0.44376E-06 37920   0.626E-03    0.860E-03
DAV:  12    -0.889485444184E+03   -0.11841E-04   -0.31065E-06 36880   0.696E-03    0.727E-03
DAV:  13    -0.889485457542E+03   -0.13357E-04   -0.24635E-06 37088   0.654E-03    0.596E-03
DAV:  14    -0.889485471522E+03   -0.13981E-04   -0.38210E-06 39200   0.867E-03    0.479E-03
DAV:  15    -0.889485482344E+03   -0.10822E-04   -0.10074E-05 42464   0.105E-02    0.494E-03
DAV:  16    -0.889485490305E+03   -0.79611E-05   -0.17334E-05 46208   0.687E-03
  14 F= -.90961282E+03 E0= -.90961282E+03  d E =-.102411E-01  mag=    17.0000
       N       E                     dE             d eps       ncg     rms          rms(c)
DAV:   1    -0.889484794644E+03    0.68770E-03   -0.12500E-01 52132   0.468E-01    0.139E-01
DAV:   2    -0.889485008617E+03   -0.21397E-03   -0.28773E-03 65546   0.105E-01    0.808E-02
DAV:   3    -0.889485158052E+03   -0.14944E-03   -0.22526E-04 56088   0.499E-02    0.559E-02
DAV:   4    -0.889485161578E+03   -0.35264E-05   -0.29559E-05 49840   0.242E-02    0.320E-02
DAV:   5    -0.889485176218E+03   -0.14639E-04   -0.36226E-05 52672   0.159E-02    0.178E-02
DAV:   6    -0.889485181014E+03   -0.47965E-05   -0.17048E-05 42200   0.169E-02
  15 F= -.90961307E+03 E0= -.90961307E+03  d E =-.104937E-01  mag=    17.0000
       N       E                     dE             d eps       ncg     rms          rms(c)
DAV:   1    -0.889480653090E+03    0.45231E-02   -0.42352E+00 51264   0.269E+00    0.762E-01
DAV:   2    -0.889491282966E+03   -0.10630E-01   -0.10209E-01 59424   0.536E-01    0.430E-01
DAV:   3    -0.889493691848E+03   -0.24089E-02   -0.60415E-03 58544   0.258E-01    0.278E-01
DAV:   4    -0.889493688287E+03    0.35617E-05   -0.88125E-04 64496   0.143E-01    0.161E-01
DAV:   5    -0.889493873270E+03   -0.18498E-03   -0.93850E-04 60832   0.643E-02    0.799E-02
DAV:   6    -0.889493947680E+03   -0.74410E-04   -0.29514E-04 64408   0.567E-02    0.456E-02
DAV:   7    -0.889493959428E+03   -0.11748E-04   -0.10135E-04 61344   0.415E-02    0.281E-02
DAV:   8    -0.889493969209E+03   -0.97816E-05   -0.26559E-05 47192   0.162E-02
  16 F= -.90962237E+03 E0= -.90962237E+03  d E =-.929996E-02  mag=    17.0000
       N       E                     dE             d eps       ncg     rms          rms(c)
DAV:   1    -0.889492312434E+03    0.16470E-02   -0.76835E-01 51354   0.115E+00    0.326E-01
DAV:   2    -0.889494095201E+03   -0.17828E-02   -0.18657E-02 59464   0.234E-01    0.185E-01
DAV:   3    -0.889494688493E+03   -0.59329E-03   -0.11548E-03 55472   0.116E-01    0.120E-01
DAV:   4    -0.889494705703E+03   -0.17210E-04   -0.16957E-04 60552   0.629E-02    0.697E-02
DAV:   5    -0.889494773825E+03   -0.68122E-04   -0.18129E-04 61752   0.314E-02    0.359E-02
DAV:   6    -0.889494799600E+03   -0.25775E-04   -0.69068E-05 56840   0.302E-02    0.231E-02
DAV:   7    -0.889494806141E+03   -0.65413E-05   -0.20769E-05 44760   0.195E-02
  17 F= -.90962343E+03 E0= -.90962343E+03  d E =-.103608E-01  mag=    17.0000
       N       E                     dE             d eps       ncg     rms          rms(c)
DAV:   1    -0.889486778575E+03    0.80210E-02   -0.43438E+00 51276   0.281E+00    0.720E-01
DAV:   2    -0.889497679504E+03   -0.10901E-01   -0.10812E-01 60216   0.554E-01    0.405E-01
DAV:   3    -0.889499787683E+03   -0.21082E-02   -0.68376E-03 58536   0.251E-01    0.257E-01
DAV:   4    -0.889499749251E+03    0.38432E-04   -0.10719E-03 64128   0.150E-01    0.161E-01
DAV:   5    -0.889499919435E+03   -0.17018E-03   -0.94798E-04 66720   0.932E-02    0.890E-02
DAV:   6    -0.889500029531E+03   -0.11010E-03   -0.38380E-04 63480   0.699E-02    0.532E-02
DAV:   7    -0.889500048788E+03   -0.19257E-04   -0.14432E-04 63728   0.419E-02    0.278E-02
DAV:   8    -0.889500069762E+03   -0.20974E-04   -0.28628E-05 49336   0.190E-02    0.185E-02
DAV:   9    -0.889500085584E+03   -0.15821E-04   -0.13868E-05 39576   0.141E-02    0.160E-02
DAV:  10    -0.889500101932E+03   -0.16349E-04   -0.84391E-06 38744   0.993E-03    0.119E-02
DAV:  11    -0.889500116650E+03   -0.14718E-04   -0.88399E-06 39752   0.861E-03    0.101E-02
DAV:  12    -0.889500128167E+03   -0.11517E-04   -0.82720E-06 40576   0.802E-03    0.850E-03
DAV:  13    -0.889500138501E+03   -0.10335E-04   -0.31961E-06 35496   0.954E-03    0.639E-03
DAV:  14    -0.889500145275E+03   -0.67732E-05   -0.79332E-06 41008   0.116E-02
  18 F= -.90963092E+03 E0= -.90963092E+03  d E =-.749083E-02  mag=    17.0000
       N       E                     dE             d eps       ncg     rms          rms(c)
DAV:   1    -0.889498575002E+03    0.15635E-02   -0.46147E-01 51360   0.916E-01    0.235E-01
DAV:   2    -0.889499592590E+03   -0.10176E-02   -0.11440E-02 58800   0.180E-01    0.132E-01
DAV:   3    -0.889499926330E+03   -0.33374E-03   -0.73701E-04 56730   0.818E-02    0.835E-02
DAV:   4    -0.889499931579E+03   -0.52487E-05   -0.11532E-04 59056   0.499E-02    0.525E-02
DAV:   5    -0.889499961978E+03   -0.30399E-04   -0.10494E-04 62760   0.306E-02    0.291E-02
DAV:   6    -0.889499976715E+03   -0.14737E-04   -0.40055E-05 53776   0.230E-02    0.175E-02
DAV:   7    -0.889499978329E+03   -0.16143E-05   -0.12789E-05 39352   0.139E-02
  19 F= -.90963146E+03 E0= -.90963146E+03  d E =-.802782E-02  mag=    17.0000
       N       E                     dE             d eps       ncg     rms          rms(c)
DAV:   1    -0.889488981322E+03    0.10995E-01   -0.53085E+00 51264   0.313E+00    0.804E-01
DAV:   2    -0.889502310540E+03   -0.13329E-01   -0.13383E-01 61424   0.616E-01    0.445E-01
DAV:   3    -0.889504203028E+03   -0.18925E-02   -0.80303E-03 58608   0.294E-01    0.307E-01
DAV:   4    -0.889504123716E+03    0.79311E-04   -0.11784E-03 63480   0.148E-01    0.181E-01
DAV:   5    -0.889504271848E+03   -0.14813E-03   -0.10890E-03 64376   0.911E-02    0.991E-02
DAV:   6    -0.889504391349E+03   -0.11950E-03   -0.53915E-04 64416   0.766E-02    0.583E-02
DAV:   7    -0.889504396915E+03   -0.55657E-05   -0.15185E-04 63288   0.443E-02    0.311E-02
DAV:   8    -0.889504414153E+03   -0.17238E-04   -0.46656E-05 56392   0.204E-02    0.203E-02
DAV:   9    -0.889504425727E+03   -0.11574E-04   -0.13686E-05 40216   0.142E-02    0.175E-02
DAV:  10    -0.889504439371E+03   -0.13644E-04   -0.85453E-06 37112   0.943E-03    0.124E-02
DAV:  11    -0.889504452076E+03   -0.12705E-04   -0.81738E-06 40072   0.828E-03    0.108E-02
DAV:  12    -0.889504460836E+03   -0.87602E-05   -0.79800E-06 40104   0.721E-03
  20 F= -.90963672E+03 E0= -.90963672E+03  d E =-.526608E-02  mag=    17.0000
       N       E                     dE             d eps       ncg     rms          rms(c)
DAV:   1    -0.889504468599E+03   -0.16523E-04   -0.39945E-05 53080   0.121E-02    0.709E-03
DAV:   2    -0.889504472775E+03   -0.41766E-05   -0.55386E-06 37792   0.542E-03    0.735E-03
DAV:   3    -0.889504473993E+03   -0.12178E-05   -0.19569E-06 33864   0.328E-03    0.639E-03
DAV:   4    -0.889504476644E+03   -0.26514E-05   -0.23542E-07 33984   0.319E-03    0.582E-03
DAV:   5    -0.889504481942E+03   -0.52972E-05   -0.50705E-07 35264   0.897E-03    0.431E-03
DAV:   6    -0.889504484731E+03   -0.27894E-05   -0.41273E-06 37520   0.832E-03
  21 F= -.90963675E+03 E0= -.90963675E+03  d E =-.529199E-02  mag=    17.0000
       N       E                     dE             d eps       ncg     rms          rms(c)
DAV:   1    -0.889494042051E+03    0.10440E-01   -0.46424E+00 51264   0.296E+00    0.726E-01
DAV:   2    -0.889505454330E+03   -0.11412E-01   -0.11397E-01 58912   0.556E-01    0.417E-01
DAV:   3    -0.889507084897E+03   -0.16306E-02   -0.66146E-03 60810   0.257E-01    0.264E-01
DAV:   4    -0.889506996743E+03    0.88155E-04   -0.11471E-03 63624   0.151E-01    0.164E-01
DAV:   5    -0.889507148680E+03   -0.15194E-03   -0.12245E-03 68144   0.101E-01    0.950E-02
DAV:   6    -0.889507225150E+03   -0.76470E-04   -0.45647E-04 63888   0.726E-02    0.541E-02
DAV:   7    -0.889507231327E+03   -0.61767E-05   -0.16401E-04 66936   0.404E-02    0.307E-02
DAV:   8    -0.889507245799E+03   -0.14472E-04   -0.41630E-05 54800   0.199E-02    0.184E-02
DAV:   9    -0.889507256275E+03   -0.10475E-04   -0.13042E-05 38960   0.140E-02    0.174E-02
DAV:  10    -0.889507266656E+03   -0.10382E-04   -0.79471E-06 37224   0.104E-02    0.112E-02
DAV:  11    -0.889507277334E+03   -0.10677E-04   -0.58428E-06 36424   0.786E-03    0.956E-03
DAV:  12    -0.889507283812E+03   -0.64784E-05   -0.95104E-06 40888   0.627E-03
  22 F= -.90964050E+03 E0= -.90964050E+03  d E =-.374847E-02  mag=    17.0000
       N       E                     dE             d eps       ncg     rms          rms(c)
DAV:   1    -0.889507312787E+03   -0.35454E-04   -0.18056E-02 53376   0.185E-01    0.465E-02
DAV:   2    -0.889507351115E+03   -0.38327E-04   -0.45345E-04 59296   0.355E-02    0.271E-02
DAV:   3    -0.889507366986E+03   -0.15871E-04   -0.29436E-05 47824   0.182E-02    0.179E-02
DAV:   4    -0.889507368281E+03   -0.12952E-05   -0.46284E-06 35728   0.107E-02    0.115E-02
DAV:   5    -0.889507371187E+03   -0.29063E-05   -0.34680E-06 34712   0.734E-03    0.730E-03
DAV:   6    -0.889507373300E+03   -0.21131E-05   -0.50230E-06 35088   0.588E-03
  23 F= -.90964053E+03 E0= -.90964053E+03  d E =-.377844E-02  mag=    17.0000
       N       E                     dE             d eps       ncg     rms          rms(c)
DAV:   1    -0.889502217060E+03    0.51541E-02   -0.24386E+00 51264   0.199E+00    0.594E-01
DAV:   2    -0.889508082263E+03   -0.58652E-02   -0.55491E-02 61000   0.379E-01    0.329E-01
DAV:   3    -0.889509130383E+03   -0.10481E-02   -0.35147E-03 59728   0.185E-01    0.185E-01
DAV:   4    -0.889509093526E+03    0.36857E-04   -0.66455E-04 63776   0.130E-01    0.117E-01
DAV:   5    -0.889509188840E+03   -0.95314E-04   -0.70173E-04 65448   0.702E-02    0.682E-02
DAV:   6    -0.889509218534E+03   -0.29693E-04   -0.18097E-04 61144   0.507E-02    0.374E-02
DAV:   7    -0.889509230189E+03   -0.11656E-04   -0.91789E-05 64816   0.310E-02    0.232E-02
DAV:   8    -0.889509239185E+03   -0.89962E-05   -0.14241E-05 40656   0.154E-02
  24 F= -.90964332E+03 E0= -.90964332E+03  d E =-.278834E-02  mag=    17.0000
       N       E                     dE             d eps       ncg     rms          rms(c)
DAV:   1    -0.889509138213E+03    0.91976E-04   -0.18856E-02 53768   0.176E-01    0.551E-02
DAV:   2    -0.889509182736E+03   -0.44523E-04   -0.44725E-04 60640   0.362E-02    0.309E-02
DAV:   3    -0.889509203999E+03   -0.21263E-04   -0.30736E-05 47656   0.176E-02    0.190E-02
DAV:   4    -0.889509207726E+03   -0.37273E-05   -0.49956E-06 35904   0.122E-02    0.128E-02
DAV:   5    -0.889509214170E+03   -0.64441E-05   -0.47631E-06 34968   0.794E-03    0.833E-03
DAV:   6    -0.889509219016E+03   -0.48458E-05   -0.68944E-06 36968   0.665E-03
  25 F= -.90964338E+03 E0= -.90964338E+03  d E =-.284955E-02  mag=    17.0000
       N       E                     dE             d eps       ncg     rms          rms(c)
DAV:   1    -0.889504934839E+03    0.42793E-02   -0.18621E+00 51264   0.174E+00    0.521E-01
DAV:   2    -0.889509539152E+03   -0.46043E-02   -0.42198E-02 58312   0.323E-01    0.269E-01
DAV:   3    -0.889510272973E+03   -0.73382E-03   -0.22688E-03 59158   0.145E-01    0.161E-01
DAV:   4    -0.889510260563E+03    0.12410E-04   -0.33818E-04 59720   0.925E-02    0.962E-02
DAV:   5    -0.889510322928E+03   -0.62365E-04   -0.38766E-04 63776   0.440E-02    0.517E-02
DAV:   6    -0.889510352533E+03   -0.29605E-04   -0.11618E-04 58640   0.336E-02    0.300E-02
DAV:   7    -0.889510358543E+03   -0.60102E-05   -0.41260E-05 54432   0.248E-02
  26 F= -.90964516E+03 E0= -.90964516E+03  d E =-.178426E-02  mag=    17.0000
       N       E                     dE             d eps       ncg     rms          rms(c)
DAV:   1    -0.889510336310E+03    0.16223E-04   -0.28090E-03 54032   0.689E-02    0.243E-02
DAV:   2    -0.889510349416E+03   -0.13106E-04   -0.79382E-05 56000   0.161E-02    0.160E-02
DAV:   3    -0.889510355074E+03   -0.56582E-05   -0.62227E-06 35744   0.114E-02    0.102E-02
DAV:   4    -0.889510359280E+03   -0.42062E-05   -0.23449E-06 34936   0.736E-03    0.833E-03
DAV:   5    -0.889510364767E+03   -0.54875E-05   -0.13228E-06 35624   0.588E-03    0.525E-03
DAV:   6    -0.889510368869E+03   -0.41015E-05   -0.40674E-06 36808   0.450E-03
  27 F= -.90964520E+03 E0= -.90964520E+03  d E =-.181939E-02  mag=    17.0000
       N       E                     dE             d eps       ncg     rms          rms(c)
DAV:   1    -0.889507117525E+03    0.32472E-02   -0.12772E+00 51264   0.145E+00    0.398E-01
DAV:   2    -0.889510179562E+03   -0.30620E-02   -0.28334E-02 57448   0.262E-01    0.223E-01
DAV:   3    -0.889510721918E+03   -0.54236E-03   -0.13528E-03 59474   0.114E-01    0.122E-01
DAV:   4    -0.889510717148E+03    0.47699E-05   -0.22629E-04 59552   0.674E-02    0.767E-02
DAV:   5    -0.889510771133E+03   -0.53985E-04   -0.29620E-04 66312   0.405E-02    0.397E-02
DAV:   6    -0.889510784058E+03   -0.12926E-04   -0.70786E-05 56848   0.306E-02    0.226E-02
DAV:   7    -0.889510787105E+03   -0.30464E-05   -0.31142E-05 49168   0.188E-02
  28 F= -.90964661E+03 E0= -.90964661E+03  d E =-.141765E-02  mag=    17.0000
       N       E                     dE             d eps       ncg     rms          rms(c)
DAV:   1    -0.889510303092E+03    0.48097E-03   -0.98950E-02 51348   0.404E-01    0.113E-01
DAV:   2    -0.889510526137E+03   -0.22304E-03   -0.22366E-03 57352   0.727E-02    0.620E-02
DAV:   3    -0.889510590704E+03   -0.64567E-04   -0.97804E-05 53556   0.314E-02    0.342E-02
DAV:   4    -0.889510595719E+03   -0.50146E-05   -0.14373E-05 40776   0.181E-02    0.221E-02
DAV:   5    -0.889510605097E+03   -0.93781E-05   -0.23201E-05 45768   0.105E-02    0.112E-02
DAV:   6    -0.889510608616E+03   -0.35191E-05   -0.70749E-06 36368   0.627E-03
  29 F= -.90964671E+03 E0= -.90964671E+03  d E =-.151757E-02  mag=    17.0000
       N       E                     dE             d eps       ncg     rms          rms(c)
DAV:   1    -0.889507299455E+03    0.33056E-02   -0.11596E+00 51264   0.142E+00    0.386E-01
DAV:   2    -0.889510112729E+03   -0.28133E-02   -0.26994E-02 60000   0.273E-01    0.217E-01
DAV:   3    -0.889510619654E+03   -0.50692E-03   -0.14816E-03 58014   0.128E-01    0.131E-01
DAV:   4    -0.889510614700E+03    0.49542E-05   -0.21092E-04 61096   0.630E-02    0.746E-02
DAV:   5    -0.889510665477E+03   -0.50777E-04   -0.23231E-04 65472   0.375E-02    0.393E-02
DAV:   6    -0.889510686752E+03   -0.21275E-04   -0.67722E-05 57624   0.271E-02    0.227E-02
DAV:   7    -0.889510690234E+03   -0.34824E-05   -0.25779E-05 46872   0.192E-02
  30 F= -.90964758E+03 E0= -.90964758E+03  d E =-.866004E-03  mag=    17.0000
       N       E                     dE             d eps       ncg     rms          rms(c)
DAV:   1    -0.889510743275E+03   -0.56523E-04   -0.75783E-03 54432   0.115E-01    0.306E-02
DAV:   2    -0.889510757767E+03   -0.14492E-04   -0.17182E-04 60064   0.245E-02    0.198E-02
DAV:   3    -0.889510765492E+03   -0.77249E-05   -0.12909E-05 37496   0.136E-02    0.119E-02
DAV:   4    -0.889510766928E+03   -0.14367E-05   -0.29812E-06 34768   0.777E-03    0.812E-03
DAV:   5    -0.889510769612E+03   -0.26840E-05   -0.24532E-06 35224   0.580E-03    0.531E-03
DAV:   6    -0.889510771661E+03   -0.20489E-05   -0.29791E-06 34824   0.443E-03
  31 F= -.90964760E+03 E0= -.90964760E+03  d E =-.883893E-03  mag=    17.0000
       N       E                     dE             d eps       ncg     rms          rms(c)
DAV:   1    -0.889509352184E+03    0.14174E-02   -0.35619E-01 51276   0.840E-01    0.212E-01
DAV:   2    -0.889510161401E+03   -0.80922E-03   -0.89772E-03 57634   0.159E-01    0.117E-01
DAV:   3    -0.889510414453E+03   -0.25305E-03   -0.47999E-04 58930   0.638E-02    0.711E-02
DAV:   4    -0.889510420370E+03   -0.59161E-05   -0.79306E-05 57944   0.402E-02    0.435E-02
DAV:   5    -0.889510447211E+03   -0.26841E-04   -0.82543E-05 63528   0.267E-02    0.246E-02
DAV:   6    -0.889510456599E+03   -0.93886E-05   -0.31399E-05 49424   0.209E-02
  32 F= -.90964802E+03 E0= -.90964802E+03  d E =-.422766E-03  mag=    17.0000
       N       E                     dE             d eps       ncg     rms          rms(c)
DAV:   1    -0.889510434847E+03    0.12364E-04   -0.32773E-04 53520   0.279E-02    0.118E-02
DAV:   2    -0.889510436279E+03   -0.14321E-05   -0.12650E-05 37712   0.929E-03    0.833E-03
DAV:   3    -0.889510437745E+03   -0.14663E-05   -0.44963E-06 33616   0.820E-03    0.661E-03
DAV:   4    -0.889510438700E+03   -0.95449E-06   -0.13082E-06 33928   0.472E-03    0.407E-03
DAV:   5    -0.889510439824E+03   -0.11240E-05   -0.77048E-07 34248   0.310E-03    0.345E-03
DAV:   6    -0.889510440721E+03   -0.89701E-06   -0.12159E-06 33848   0.233E-03
  33 F= -.90964803E+03 E0= -.90964803E+03  d E =-.428880E-03  mag=    17.0000
       N       E                     dE             d eps       ncg     rms          rms(c)
DAV:   1    -0.889509428840E+03    0.10110E-02   -0.25106E-01 51276   0.693E-01    0.173E-01
DAV:   2    -0.889509960348E+03   -0.53151E-03   -0.62564E-03 57876   0.131E-01    0.942E-02
DAV:   3    -0.889510166357E+03   -0.20601E-03   -0.34520E-04 55676   0.613E-02    0.597E-02
DAV:   4    -0.889510169756E+03   -0.33996E-05   -0.56537E-05 54576   0.353E-02    0.362E-02
DAV:   5    -0.889510192137E+03   -0.22381E-04   -0.57855E-05 57648   0.224E-02    0.210E-02
DAV:   6    -0.889510200879E+03   -0.87423E-05   -0.22077E-05 44920   0.173E-02
  34 F= -.90964838E+03 E0= -.90964838E+03  d E =-.350970E-03  mag=    17.0000
       N       E                     dE             d eps       ncg     rms          rms(c)
DAV:   1    -0.889509899136E+03    0.29300E-03   -0.35283E-02 51392   0.260E-01    0.669E-02
DAV:   2    -0.889509959888E+03   -0.60752E-04   -0.90698E-04 59544   0.501E-02    0.360E-02
DAV:   3    -0.889510005790E+03   -0.45902E-04   -0.53748E-05 50278   0.253E-02    0.241E-02
DAV:   4    -0.889510008048E+03   -0.22582E-05   -0.81683E-06 36232   0.148E-02    0.147E-02
DAV:   5    -0.889510013072E+03   -0.50241E-05   -0.67131E-06 33780   0.878E-03    0.841E-03
DAV:   6    -0.889510015684E+03   -0.26116E-05   -0.73801E-06 35040   0.776E-03
  35 F= -.90964841E+03 E0= -.90964841E+03  d E =-.387182E-03  mag=    17.0000
       N       E                     dE             d eps       ncg     rms          rms(c)
DAV:   1    -0.889508887662E+03    0.11254E-02   -0.21859E-01 51276   0.673E-01    0.161E-01
DAV:   2    -0.889509377027E+03   -0.48937E-03   -0.58316E-03 57084   0.128E-01    0.887E-02
DAV:   3    -0.889509543403E+03   -0.16638E-03   -0.33257E-04 57088   0.612E-02    0.564E-02
DAV:   4    -0.889509546479E+03   -0.30761E-05   -0.62123E-05 55736   0.358E-02    0.332E-02
DAV:   5    -0.889509565894E+03   -0.19415E-04   -0.57437E-05 56848   0.222E-02    0.193E-02
DAV:   6    -0.889509573301E+03   -0.74073E-05   -0.15060E-05 39416   0.151E-02
  36 F= -.90964868E+03 E0= -.90964868E+03  d E =-.265349E-03  mag=    17.0000
       N       E                     dE             d eps       ncg     rms          rms(c)
DAV:   1    -0.889509514970E+03    0.50924E-04   -0.13680E-03 53560   0.538E-02    0.160E-02
DAV:   2    -0.889509518109E+03   -0.31394E-05   -0.42737E-05 50776   0.121E-02    0.914E-03
DAV:   3    -0.889509520988E+03   -0.28782E-05   -0.43774E-06 32502   0.855E-03    0.721E-03
DAV:   4    -0.889509521655E+03   -0.66706E-06   -0.12838E-06 33280   0.502E-03    0.440E-03
DAV:   5    -0.889509522787E+03   -0.11329E-05   -0.62069E-07 34032   0.305E-03    0.336E-03
DAV:   6    -0.889509523453E+03   -0.66523E-06   -0.95986E-07 33024   0.201E-03
  37 F= -.90964868E+03 E0= -.90964868E+03  d E =-.271391E-03  mag=    17.0000
       N       E                     dE             d eps       ncg     rms          rms(c)
DAV:   1    -0.889508489710E+03    0.10331E-02   -0.15785E-01 51276   0.571E-01    0.134E-01
DAV:   2    -0.889508838402E+03   -0.34869E-03   -0.40352E-03 59298   0.110E-01    0.777E-02
DAV:   3    -0.889508956402E+03   -0.11800E-03   -0.24878E-04 53310   0.535E-02    0.474E-02
DAV:   4    -0.889508958952E+03   -0.25506E-05   -0.46632E-05 52472   0.331E-02    0.303E-02
DAV:   5    -0.889508972879E+03   -0.13927E-04   -0.40560E-05 52648   0.187E-02    0.156E-02
DAV:   6    -0.889508978572E+03   -0.56927E-05   -0.10029E-05 36656   0.131E-02
  38 F= -.90964887E+03 E0= -.90964887E+03  d E =-.187334E-03  mag=    17.0000
       N       E                     dE             d eps       ncg     rms          rms(c)
DAV:   1    -0.889508881774E+03    0.91105E-04   -0.24443E-03 52928   0.715E-02    0.192E-02
DAV:   2    -0.889508886420E+03   -0.46457E-05   -0.68778E-05 53736   0.148E-02    0.110E-02
DAV:   3    -0.889508890536E+03   -0.41157E-05   -0.50948E-06 32072   0.907E-03    0.754E-03
DAV:   4    -0.889508891317E+03   -0.78170E-06   -0.14856E-06 33288   0.579E-03    0.507E-03
DAV:   5    -0.889508892426E+03   -0.11084E-05   -0.85470E-07 33896   0.312E-03    0.335E-03
DAV:   6    -0.889508893128E+03   -0.70230E-06   -0.89039E-07 33344   0.211E-03
  39 F= -.90964888E+03 E0= -.90964888E+03  d E =-.193206E-03  mag=    17.0000
       N       E                     dE             d eps       ncg     rms          rms(c)
DAV:   1    -0.889507926552E+03    0.96587E-03   -0.16054E-01 51276   0.564E-01    0.135E-01
DAV:   2    -0.889508289451E+03   -0.36290E-03   -0.39537E-03 56640   0.100E-01    0.739E-02
DAV:   3    -0.889508391534E+03   -0.10208E-03   -0.19447E-04 56450   0.449E-02    0.437E-02
DAV:   4    -0.889508393742E+03   -0.22079E-05   -0.39401E-05 51840   0.289E-02    0.282E-02
DAV:   5    -0.889508406537E+03   -0.12795E-04   -0.39639E-05 53816   0.189E-02    0.151E-02
DAV:   6    -0.889508411173E+03   -0.46363E-05   -0.11197E-05 37440   0.124E-02
  40 F= -.90964906E+03 E0= -.90964906E+03  d E =-.181373E-03  mag=    17.0000
       N       E                     dE             d eps       ncg     rms          rms(c)
DAV:   1    -0.889508284730E+03    0.12181E-03   -0.48604E-03 52748   0.984E-02    0.256E-02
DAV:   2    -0.889508294120E+03   -0.93900E-05   -0.12872E-04 55440   0.185E-02    0.135E-02
DAV:   3    -0.889508300308E+03   -0.61881E-05   -0.65897E-06 32382   0.976E-03    0.917E-03
DAV:   4    -0.889508301422E+03   -0.11133E-05   -0.21307E-06 33816   0.679E-03    0.604E-03
DAV:   5    -0.889508303079E+03   -0.16572E-05   -0.11718E-06 34288   0.373E-03    0.370E-03
DAV:   6    -0.889508304130E+03   -0.10509E-05   -0.13161E-06 33696   0.250E-03
  41 F= -.90964907E+03 E0= -.90964907E+03  d E =-.189726E-03  mag=    17.0000
       N       E                     dE             d eps       ncg     rms          rms(c)
DAV:   1    -0.889507252586E+03    0.10505E-02   -0.16125E-01 51276   0.567E-01    0.141E-01
DAV:   2    -0.889507626630E+03   -0.37404E-03   -0.41031E-03 57104   0.104E-01    0.758E-02
DAV:   3    -0.889507730081E+03   -0.10345E-03   -0.21522E-04 55504   0.487E-02    0.462E-02
DAV:   4    -0.889507732438E+03   -0.23573E-05   -0.36213E-05 52424   0.280E-02    0.275E-02
DAV:   5    -0.889507745766E+03   -0.13328E-04   -0.37063E-05 52720   0.171E-02    0.153E-02
DAV:   6    -0.889507750779E+03   -0.50129E-05   -0.12582E-05 38360   0.135E-02
  42 F= -.90964923E+03 E0= -.90964923E+03  d E =-.161209E-03  mag=    17.0000
       N       E                     dE             d eps       ncg     rms          rms(c)
DAV:   1    -0.889507704132E+03    0.41633E-04   -0.66163E-04 53624   0.371E-02    0.119E-02
DAV:   2    -0.889507706083E+03   -0.19502E-05   -0.19291E-05 41240   0.849E-03    0.697E-03
DAV:   3    -0.889507708006E+03   -0.19236E-05   -0.34994E-06 33624   0.713E-03    0.573E-03
DAV:   4    -0.889507708838E+03   -0.83187E-06   -0.10004E-06 33664   0.408E-03    0.338E-03
DAV:   5    -0.889507710210E+03   -0.13720E-05   -0.42220E-07 34384   0.211E-03    0.276E-03
DAV:   6    -0.889507711280E+03   -0.10703E-05   -0.45753E-07 34088   0.156E-03
  43 F= -.90964923E+03 E0= -.90964923E+03  d E =-.167361E-03  mag=    17.0000
       N       E                     dE             d eps       ncg     rms          rms(c)
DAV:   1    -0.889506945805E+03    0.76441E-03   -0.96563E-02 51288   0.449E-01    0.105E-01
DAV:   2    -0.889507145474E+03   -0.19967E-03   -0.24633E-03 57436   0.842E-02    0.598E-02
DAV:   3    -0.889507225062E+03   -0.79588E-04   -0.13720E-04 53432   0.371E-02    0.363E-02
DAV:   4    -0.889507227387E+03   -0.23252E-05   -0.18484E-05 42880   0.212E-02    0.221E-02
DAV:   5    -0.889507239334E+03   -0.11947E-04   -0.28170E-05 49008   0.130E-02    0.118E-02
DAV:   6    -0.889507243029E+03   -0.36947E-05   -0.87537E-06 35336   0.119E-02
  44 F= -.90964936E+03 E0= -.90964936E+03  d E =-.123437E-03  mag=    17.0000
       N       E                     dE             d eps       ncg     rms          rms(c)
DAV:   1    -0.889507201909E+03    0.37425E-04   -0.45358E-04 53368   0.314E-02    0.962E-03
DAV:   2    -0.889507202914E+03   -0.10048E-05   -0.12831E-05 37952   0.683E-03    0.585E-03
DAV:   3    -0.889507204575E+03   -0.16615E-05   -0.29072E-06 33056   0.599E-03    0.503E-03
DAV:   4    -0.889507205182E+03   -0.60652E-06   -0.72449E-07 33528   0.349E-03    0.290E-03
DAV:   5    -0.889507206192E+03   -0.10106E-05   -0.29538E-07 34248   0.173E-03    0.241E-03
DAV:   6    -0.889507206978E+03   -0.78592E-06   -0.31599E-07 33752   0.148E-03
  45 F= -.90964936E+03 E0= -.90964936E+03  d E =-.127832E-03  mag=    17.0000
       N       E                     dE             d eps       ncg     rms          rms(c)
DAV:   1    -0.889506418240E+03    0.78795E-03   -0.95636E-02 51276   0.437E-01    0.110E-01
DAV:   2    -0.889506603852E+03   -0.18561E-03   -0.23500E-03 56362   0.790E-02    0.592E-02
DAV:   3    -0.889506692884E+03   -0.89032E-04   -0.11506E-04 51510   0.312E-02    0.349E-02
DAV:   4    -0.889506696913E+03   -0.40293E-05   -0.16724E-05 42624   0.199E-02    0.212E-02
DAV:   5    -0.889506709411E+03   -0.12497E-04   -0.29409E-05 49664   0.106E-02    0.119E-02
DAV:   6    -0.889506712329E+03   -0.29186E-05   -0.46070E-06 34816   0.758E-03
  46 F= -.90964949E+03 E0= -.90964949E+03  d E =-.123121E-03  mag=    17.0000
