 125 125   0   0
  0.2493880E+02  0.1015022E-08  0.1015023E-08  0.3493840E-08  0.2000000E-16
  1.000000000000000E-004
  CAR 
 unknown system                          
     11.20768675    -64.87362413  301      1.62059074      1.00000000
    -64.874  0.0000E+00  0.0000E+00  0.0000E+00  0.0000E+00
    -64.620  0.0000E+00  0.0000E+00  0.0000E+00  0.0000E+00
    -64.366  0.0000E+00  0.0000E+00  0.0000E+00  0.0000E+00
    -64.113  0.0000E+00  0.0000E+00  0.0000E+00  0.0000E+00
    -63.859  0.0000E+00  0.0000E+00  0.0000E+00  0.0000E+00
    -63.606  0.0000E+00  0.0000E+00  0.0000E+00  0.0000E+00
    -63.352  0.0000E+00  0.0000E+00  0.0000E+00  0.0000E+00
    -63.098  0.0000E+00  0.0000E+00  0.0000E+00  0.0000E+00
    -62.845  0.0000E+00  0.0000E+00  0.0000E+00  0.0000E+00
    -62.591  0.0000E+00  0.0000E+00  0.0000E+00  0.0000E+00
    -62.338  0.0000E+00  0.0000E+00  0.0000E+00  0.0000E+00
    -62.084  0.0000E+00  0.0000E+00  0.0000E+00  0.0000E+00
    -61.830  0.0000E+00  0.0000E+00  0.0000E+00  0.0000E+00
    -61.577  0.6421E-08  0.3812E-11  0.1628E-08  0.9667E-12
    -61.323  0.1361E-01  0.5260E-02  0.3452E-02  0.1334E-02
    -61.070  0.1717E-01  0.2553E-01  0.7807E-02  0.7807E-02
    -60.816  0.0000E+00  0.0000E+00  0.7807E-02  0.7807E-02
    -60.562  0.0000E+00  0.0000E+00  0.7807E-02  0.7807E-02
    -60.309  0.0000E+00  0.0000E+00  0.7807E-02  0.7807E-02
    -60.055  0.0000E+00  0.0000E+00  0.7807E-02  0.7807E-02
    -59.802  0.0000E+00  0.0000E+00  0.7807E-02  0.7807E-02
    -59.548  0.0000E+00  0.0000E+00  0.7807E-02  0.7807E-02
    -59.294  0.0000E+00  0.0000E+00  0.7807E-02  0.7807E-02
    -59.041  0.0000E+00  0.0000E+00  0.7807E-02  0.7807E-02
    -58.787  0.0000E+00  0.0000E+00  0.7807E-02  0.7807E-02
    -58.534  0.0000E+00  0.0000E+00  0.7807E-02  0.7807E-02
    -58.280  0.0000E+00  0.0000E+00  0.7807E-02  0.7807E-02
    -58.026  0.0000E+00  0.0000E+00  0.7807E-02  0.7807E-02
    -57.773  0.0000E+00  0.0000E+00  0.7807E-02  0.7807E-02
    -57.519  0.0000E+00  0.0000E+00  0.7807E-02  0.7807E-02
    -57.265  0.0000E+00  0.0000E+00  0.7807E-02  0.7807E-02
    -57.012  0.0000E+00  0.0000E+00  0.7807E-02  0.7807E-02
    -56.758  0.0000E+00  0.0000E+00  0.7807E-02  0.7807E-02
    -56.505  0.0000E+00  0.0000E+00  0.7807E-02  0.7807E-02
    -56.251  0.0000E+00  0.0000E+00  0.7807E-02  0.7807E-02
    -55.997  0.0000E+00  0.0000E+00  0.7807E-02  0.7807E-02
    -55.744  0.0000E+00  0.0000E+00  0.7807E-02  0.7807E-02
    -55.490  0.0000E+00  0.0000E+00  0.7807E-02  0.7807E-02
    -55.237  0.0000E+00  0.0000E+00  0.7807E-02  0.7807E-02
    -54.983  0.0000E+00  0.0000E+00  0.7807E-02  0.7807E-02
    -54.729  0.0000E+00  0.0000E+00  0.7807E-02  0.7807E-02
    -54.476  0.0000E+00  0.0000E+00  0.7807E-02  0.7807E-02
    -54.222  0.0000E+00  0.0000E+00  0.7807E-02  0.7807E-02
    -53.969  0.0000E+00  0.0000E+00  0.7807E-02  0.7807E-02
    -53.715  0.0000E+00  0.0000E+00  0.7807E-02  0.7807E-02
    -53.461  0.0000E+00  0.0000E+00  0.7807E-02  0.7807E-02
    -53.208  0.0000E+00  0.0000E+00  0.7807E-02  0.7807E-02
    -52.954  0.0000E+00  0.0000E+00  0.7807E-02  0.7807E-02
    -52.701  0.0000E+00  0.0000E+00  0.7807E-02  0.7807E-02
    -52.447  0.0000E+00  0.0000E+00  0.7807E-02  0.7807E-02
    -52.193  0.0000E+00  0.0000E+00  0.7807E-02  0.7807E-02
    -51.940  0.0000E+00  0.0000E+00  0.7807E-02  0.7807E-02
    -51.686  0.0000E+00  0.0000E+00  0.7807E-02  0.7807E-02
    -51.433  0.0000E+00  0.0000E+00  0.7807E-02  0.7807E-02
    -51.179  0.0000E+00  0.0000E+00  0.7807E-02  0.7807E-02
    -50.925  0.0000E+00  0.0000E+00  0.7807E-02  0.7807E-02
    -50.672  0.0000E+00  0.0000E+00  0.7807E-02  0.7807E-02
    -50.418  0.0000E+00  0.0000E+00  0.7807E-02  0.7807E-02
    -50.165  0.0000E+00  0.0000E+00  0.7807E-02  0.7807E-02
    -49.911  0.0000E+00  0.0000E+00  0.7807E-02  0.7807E-02
    -49.657  0.0000E+00  0.0000E+00  0.7807E-02  0.7807E-02
    -49.404  0.0000E+00  0.0000E+00  0.7807E-02  0.7807E-02
    -49.150  0.0000E+00  0.0000E+00  0.7807E-02  0.7807E-02
    -48.897  0.0000E+00  0.0000E+00  0.7807E-02  0.7807E-02
    -48.643  0.0000E+00  0.0000E+00  0.7807E-02  0.7807E-02
    -48.389  0.0000E+00  0.0000E+00  0.7807E-02  0.7807E-02
    -48.136  0.0000E+00  0.0000E+00  0.7807E-02  0.7807E-02
    -47.882  0.0000E+00  0.0000E+00  0.7807E-02  0.7807E-02
    -47.629  0.0000E+00  0.0000E+00  0.7807E-02  0.7807E-02
    -47.375  0.0000E+00  0.0000E+00  0.7807E-02  0.7807E-02
    -47.121  0.0000E+00  0.0000E+00  0.7807E-02  0.7807E-02
    -46.868  0.0000E+00  0.0000E+00  0.7807E-02  0.7807E-02
    -46.614  0.0000E+00  0.0000E+00  0.7807E-02  0.7807E-02
    -46.361  0.0000E+00  0.0000E+00  0.7807E-02  0.7807E-02
    -46.107  0.0000E+00  0.0000E+00  0.7807E-02  0.7807E-02
    -45.853  0.0000E+00  0.0000E+00  0.7807E-02  0.7807E-02
    -45.600  0.0000E+00  0.0000E+00  0.7807E-02  0.7807E-02
    -45.346  0.0000E+00  0.0000E+00  0.7807E-02  0.7807E-02
    -45.092  0.0000E+00  0.0000E+00  0.7807E-02  0.7807E-02
    -44.839  0.0000E+00  0.0000E+00  0.7807E-02  0.7807E-02
    -44.585  0.0000E+00  0.0000E+00  0.7807E-02  0.7807E-02
    -44.332  0.0000E+00  0.0000E+00  0.7807E-02  0.7807E-02
    -44.078  0.0000E+00  0.0000E+00  0.7807E-02  0.7807E-02
    -43.824  0.0000E+00  0.0000E+00  0.7807E-02  0.7807E-02
    -43.571  0.0000E+00  0.0000E+00  0.7807E-02  0.7807E-02
    -43.317  0.0000E+00  0.0000E+00  0.7807E-02  0.7807E-02
    -43.064  0.0000E+00  0.0000E+00  0.7807E-02  0.7807E-02
    -42.810  0.0000E+00  0.0000E+00  0.7807E-02  0.7807E-02
    -42.556  0.0000E+00  0.0000E+00  0.7807E-02  0.7807E-02
    -42.303  0.0000E+00  0.0000E+00  0.7807E-02  0.7807E-02
    -42.049  0.0000E+00  0.0000E+00  0.7807E-02  0.7807E-02
    -41.796  0.0000E+00  0.0000E+00  0.7807E-02  0.7807E-02
    -41.542  0.0000E+00  0.0000E+00  0.7807E-02  0.7807E-02
    -41.288  0.0000E+00  0.0000E+00  0.7807E-02  0.7807E-02
    -41.035  0.0000E+00  0.0000E+00  0.7807E-02  0.7807E-02
    -40.781  0.0000E+00  0.0000E+00  0.7807E-02  0.7807E-02
    -40.528  0.0000E+00  0.0000E+00  0.7807E-02  0.7807E-02
    -40.274  0.0000E+00  0.0000E+00  0.7807E-02  0.7807E-02
    -40.020  0.0000E+00  0.0000E+00  0.7807E-02  0.7807E-02
    -39.767  0.0000E+00  0.0000E+00  0.7807E-02  0.7807E-02
    -39.513  0.0000E+00  0.0000E+00  0.7807E-02  0.7807E-02
    -39.260  0.0000E+00  0.0000E+00  0.7807E-02  0.7807E-02
    -39.006  0.0000E+00  0.0000E+00  0.7807E-02  0.7807E-02
    -38.752  0.0000E+00  0.0000E+00  0.7807E-02  0.7807E-02
    -38.499  0.0000E+00  0.0000E+00  0.7807E-02  0.7807E-02
    -38.245  0.0000E+00  0.0000E+00  0.7807E-02  0.7807E-02
    -37.992  0.0000E+00  0.0000E+00  0.7807E-02  0.7807E-02
    -37.738  0.0000E+00  0.0000E+00  0.7807E-02  0.7807E-02
    -37.484  0.0000E+00  0.0000E+00  0.7807E-02  0.7807E-02
    -37.231  0.0000E+00  0.0000E+00  0.7807E-02  0.7807E-02
    -36.977  0.0000E+00  0.0000E+00  0.7807E-02  0.7807E-02
    -36.724  0.0000E+00  0.0000E+00  0.7807E-02  0.7807E-02
    -36.470  0.0000E+00  0.0000E+00  0.7807E-02  0.7807E-02
    -36.216  0.4137E-13  0.4942E-16  0.7807E-02  0.7807E-02
    -35.963  0.4923E-02  0.2234E-02  0.9056E-02  0.8374E-02
    -35.709  0.8628E-02  0.9891E-02  0.1124E-01  0.1088E-01
    -35.456  0.2330E-01  0.2176E-01  0.1715E-01  0.1640E-01
    -35.202  0.5045E-01  0.4948E-01  0.2995E-01  0.2895E-01
    -34.948  0.5059E-02  0.8992E-02  0.3123E-01  0.3123E-01
    -34.695  0.0000E+00  0.0000E+00  0.3123E-01  0.3123E-01
    -34.441  0.0000E+00  0.0000E+00  0.3123E-01  0.3123E-01
    -34.187  0.0000E+00  0.0000E+00  0.3123E-01  0.3123E-01
    -33.934  0.0000E+00  0.0000E+00  0.3123E-01  0.3123E-01
    -33.680  0.0000E+00  0.0000E+00  0.3123E-01  0.3123E-01
    -33.427  0.0000E+00  0.0000E+00  0.3123E-01  0.3123E-01
    -33.173  0.0000E+00  0.0000E+00  0.3123E-01  0.3123E-01
    -32.919  0.0000E+00  0.0000E+00  0.3123E-01  0.3123E-01
    -32.666  0.0000E+00  0.0000E+00  0.3123E-01  0.3123E-01
    -32.412  0.0000E+00  0.0000E+00  0.3123E-01  0.3123E-01
    -32.159  0.0000E+00  0.0000E+00  0.3123E-01  0.3123E-01
    -31.905  0.0000E+00  0.0000E+00  0.3123E-01  0.3123E-01
    -31.651  0.0000E+00  0.0000E+00  0.3123E-01  0.3123E-01
    -31.398  0.0000E+00  0.0000E+00  0.3123E-01  0.3123E-01
    -31.144  0.0000E+00  0.0000E+00  0.3123E-01  0.3123E-01
    -30.891  0.0000E+00  0.0000E+00  0.3123E-01  0.3123E-01
    -30.637  0.0000E+00  0.0000E+00  0.3123E-01  0.3123E-01
    -30.383  0.0000E+00  0.0000E+00  0.3123E-01  0.3123E-01
    -30.130  0.0000E+00  0.0000E+00  0.3123E-01  0.3123E-01
    -29.876  0.0000E+00  0.0000E+00  0.3123E-01  0.3123E-01
    -29.623  0.0000E+00  0.0000E+00  0.3123E-01  0.3123E-01
    -29.369  0.0000E+00  0.0000E+00  0.3123E-01  0.3123E-01
    -29.115  0.0000E+00  0.0000E+00  0.3123E-01  0.3123E-01
    -28.862  0.0000E+00  0.0000E+00  0.3123E-01  0.3123E-01
    -28.608  0.0000E+00  0.0000E+00  0.3123E-01  0.3123E-01
    -28.355  0.0000E+00  0.0000E+00  0.3123E-01  0.3123E-01
    -28.101  0.0000E+00  0.0000E+00  0.3123E-01  0.3123E-01
    -27.847  0.0000E+00  0.0000E+00  0.3123E-01  0.3123E-01
    -27.594  0.0000E+00  0.0000E+00  0.3123E-01  0.3123E-01
    -27.340  0.0000E+00  0.0000E+00  0.3123E-01  0.3123E-01
    -27.087  0.0000E+00  0.0000E+00  0.3123E-01  0.3123E-01
    -26.833  0.0000E+00  0.0000E+00  0.3123E-01  0.3123E-01
    -26.579  0.0000E+00  0.0000E+00  0.3123E-01  0.3123E-01
    -26.326  0.0000E+00  0.0000E+00  0.3123E-01  0.3123E-01
    -26.072  0.0000E+00  0.0000E+00  0.3123E-01  0.3123E-01
    -25.819  0.0000E+00  0.0000E+00  0.3123E-01  0.3123E-01
    -25.565  0.0000E+00  0.0000E+00  0.3123E-01  0.3123E-01
    -25.311  0.0000E+00  0.0000E+00  0.3123E-01  0.3123E-01
    -25.058  0.0000E+00  0.0000E+00  0.3123E-01  0.3123E-01
    -24.804  0.0000E+00  0.0000E+00  0.3123E-01  0.3123E-01
    -24.551  0.0000E+00  0.0000E+00  0.3123E-01  0.3123E-01
    -24.297  0.0000E+00  0.0000E+00  0.3123E-01  0.3123E-01
    -24.043  0.0000E+00  0.0000E+00  0.3123E-01  0.3123E-01
    -23.790  0.0000E+00  0.0000E+00  0.3123E-01  0.3123E-01
    -23.536  0.0000E+00  0.0000E+00  0.3123E-01  0.3123E-01
    -23.283  0.0000E+00  0.0000E+00  0.3123E-01  0.3123E-01
    -23.029  0.0000E+00  0.0000E+00  0.3123E-01  0.3123E-01
    -22.775  0.0000E+00  0.0000E+00  0.3123E-01  0.3123E-01
    -22.522  0.0000E+00  0.0000E+00  0.3123E-01  0.3123E-01
    -22.268  0.0000E+00  0.0000E+00  0.3123E-01  0.3123E-01
    -22.014  0.0000E+00  0.0000E+00  0.3123E-01  0.3123E-01
    -21.761  0.0000E+00  0.0000E+00  0.3123E-01  0.3123E-01
    -21.507  0.0000E+00  0.0000E+00  0.3123E-01  0.3123E-01
    -21.254  0.0000E+00  0.0000E+00  0.3123E-01  0.3123E-01
    -21.000  0.0000E+00  0.0000E+00  0.3123E-01  0.3123E-01
    -20.746  0.0000E+00  0.0000E+00  0.3123E-01  0.3123E-01
    -20.493  0.0000E+00  0.0000E+00  0.3123E-01  0.3123E-01
    -20.239  0.9538E-13  0.0000E+00  0.3123E-01  0.3123E-01
    -19.986  0.1913E-02  0.3343E-09  0.3171E-01  0.3123E-01
    -19.732  0.1182E-02  0.2510E-02  0.3201E-01  0.3187E-01
    -19.478  0.9492E-02  0.5491E-02  0.3442E-01  0.3326E-01
    -19.225  0.2401E-03  0.4826E-02  0.3448E-01  0.3448E-01
    -18.971  0.0000E+00  0.0000E+00  0.3448E-01  0.3448E-01
    -18.718  0.1241E-03  0.1224E-03  0.3451E-01  0.3451E-01
    -18.464  0.4999E-02  0.4998E-02  0.3578E-01  0.3578E-01
    -18.210  0.4756E-02  0.1102E-04  0.3699E-01  0.3578E-01
    -17.957  0.5464E-02  0.4346E-02  0.3837E-01  0.3689E-01
    -17.703  0.3205E-01  0.1789E-01  0.4650E-01  0.4142E-01
    -17.450  0.1506E-02  0.2033E-01  0.4688E-01  0.4658E-01
    -17.196  0.1675E-01  0.1644E-01  0.5113E-01  0.5075E-01
    -16.942  0.2132E-01  0.2631E-02  0.5654E-01  0.5142E-01
    -16.689  0.2699E-03  0.2034E-01  0.5661E-01  0.5657E-01
    -16.435  0.5115E-02  0.5255E-02  0.5791E-01  0.5791E-01
    -16.182  0.3878E-02  0.3805E-02  0.5889E-01  0.5887E-01
    -15.928  0.1152E-01  0.1159E-01  0.6181E-01  0.6181E-01
    -15.674  0.2515E-02  0.2235E-02  0.6245E-01  0.6238E-01
    -15.421  0.4967E-02  0.5187E-02  0.6371E-01  0.6369E-01
    -15.167  0.1228E-01  0.1221E-01  0.6682E-01  0.6679E-01
    -14.914  0.1326E-01  0.1336E-01  0.7018E-01  0.7018E-01
    -14.660  0.2643E-01  0.2615E-01  0.7689E-01  0.7681E-01
    -14.406  0.4688E-02  0.4993E-02  0.7807E-01  0.7807E-01
    -14.153  0.0000E+00  0.0000E+00  0.7807E-01  0.7807E-01
    -13.899  0.0000E+00  0.0000E+00  0.7807E-01  0.7807E-01
    -13.646  0.0000E+00  0.0000E+00  0.7807E-01  0.7807E-01
    -13.392  0.0000E+00  0.0000E+00  0.7807E-01  0.7807E-01
    -13.138  0.0000E+00  0.0000E+00  0.7807E-01  0.7807E-01
    -12.885  0.0000E+00  0.0000E+00  0.7807E-01  0.7807E-01
    -12.631  0.0000E+00  0.0000E+00  0.7807E-01  0.7807E-01
    -12.378  0.0000E+00  0.0000E+00  0.7807E-01  0.7807E-01
    -12.124  0.0000E+00  0.0000E+00  0.7807E-01  0.7807E-01
    -11.870  0.0000E+00  0.0000E+00  0.7807E-01  0.7807E-01
    -11.617  0.0000E+00  0.0000E+00  0.7807E-01  0.7807E-01
    -11.363  0.0000E+00  0.0000E+00  0.7807E-01  0.7807E-01
    -11.109  0.0000E+00  0.0000E+00  0.7807E-01  0.7807E-01
    -10.856  0.0000E+00  0.0000E+00  0.7807E-01  0.7807E-01
    -10.602  0.1125E-15  0.8531E-16  0.7807E-01  0.7807E-01
    -10.349  0.2455E-02  0.2355E-02  0.7870E-01  0.7867E-01
    -10.095  0.5242E-02  0.5342E-02  0.8003E-01  0.8003E-01
     -9.841  0.7725E-02  0.5377E-02  0.8199E-01  0.8139E-01
     -9.588  0.1256E-01  0.7501E-02  0.8517E-01  0.8329E-01
     -9.334  0.5333E-02  0.1274E-01  0.8652E-01  0.8652E-01
     -9.081  0.3870E-04  0.4274E-04  0.8653E-01  0.8653E-01
     -8.827  0.5129E-02  0.5129E-02  0.8783E-01  0.8783E-01
     -8.573  0.5477E-02  0.5155E-02  0.8922E-01  0.8914E-01
     -8.320  0.7458E-02  0.7299E-02  0.9111E-01  0.9099E-01
     -8.066  0.1298E-01  0.1337E-01  0.9441E-01  0.9438E-01
     -7.813  0.2312E-02  0.2402E-02  0.9499E-01  0.9499E-01
     -7.559  0.1531E-01  0.1529E-01  0.9887E-01  0.9887E-01
     -7.305  0.7606E-04  0.9248E-04  0.9889E-01  0.9889E-01
     -7.052  0.1752E-02  0.1279E-02  0.9934E-01  0.9922E-01
     -6.798  0.2099E-01  0.2113E-01  0.1047E+00  0.1046E+00
     -6.545  0.3479E-03  0.6848E-03  0.1047E+00  0.1047E+00
     -6.291  0.1023E-01  0.2765E-02  0.1073E+00  0.1055E+00
     -6.037  0.2638E-01  0.2684E-01  0.1140E+00  0.1123E+00
     -5.784  0.4591E-01  0.3968E-01  0.1257E+00  0.1223E+00
     -5.530  0.2847E-01  0.3813E-01  0.1329E+00  0.1320E+00
     -5.277  0.5976E-02  0.8911E-02  0.1344E+00  0.1343E+00
     -5.023  0.9232E-02  0.9373E-02  0.1368E+00  0.1366E+00
     -4.769  0.2305E-01  0.1517E-01  0.1426E+00  0.1405E+00
     -4.516  0.1073E-01  0.1377E-01  0.1453E+00  0.1440E+00
     -4.262  0.2451E-01  0.1348E-01  0.1515E+00  0.1474E+00
     -4.009  0.3631E-01  0.3426E-01  0.1607E+00  0.1561E+00
     -3.755  0.2815E-01  0.3059E-01  0.1679E+00  0.1638E+00
     -3.501  0.2328E-01  0.8476E-02  0.1738E+00  0.1660E+00
     -3.248  0.1988E-01  0.1802E-01  0.1788E+00  0.1706E+00
     -2.994  0.1802E-01  0.1911E-01  0.1834E+00  0.1754E+00
     -2.741  0.3052E-01  0.3702E-01  0.1911E+00  0.1848E+00
     -2.487  0.4366E-01  0.4141E-01  0.2022E+00  0.1953E+00
     -2.233  0.2396E-01  0.3027E-01  0.2083E+00  0.2030E+00
     -1.980  0.1870E-01  0.1897E-01  0.2130E+00  0.2078E+00
     -1.726  0.8820E-02  0.1136E-01  0.2153E+00  0.2107E+00
     -1.473  0.5440E-02  0.2129E-01  0.2166E+00  0.2161E+00
     -1.219  0.1448E-01  0.2824E-02  0.2203E+00  0.2168E+00
     -0.965  0.2887E-01  0.2887E-01  0.2276E+00  0.2241E+00
     -0.712  0.1738E-01  0.1455E-02  0.2321E+00  0.2245E+00
     -0.458  0.3077E-01  0.4861E-02  0.2399E+00  0.2257E+00
     -0.205  0.2445E-01  0.8665E-02  0.2461E+00  0.2279E+00
      0.049  0.2407E-01  0.1235E-01  0.2522E+00  0.2310E+00
      0.303  0.1857E-01  0.2308E-01  0.2569E+00  0.2369E+00
      0.556  0.3219E-02  0.2829E-01  0.2577E+00  0.2441E+00
      0.810  0.5040E-02  0.2107E-01  0.2590E+00  0.2494E+00
      1.064  0.1497E-01  0.6867E-02  0.2628E+00  0.2511E+00
      1.317  0.2215E-02  0.0000E+00  0.2633E+00  0.2511E+00
      1.571  0.3519E-02  0.1713E-04  0.2642E+00  0.2511E+00
      1.824  0.5107E-02  0.2130E-01  0.2655E+00  0.2565E+00
      2.078  0.8231E-02  0.2336E-01  0.2676E+00  0.2625E+00
      2.332  0.1489E-01  0.1035E-01  0.2714E+00  0.2651E+00
      2.585  0.8796E-02  0.9753E-02  0.2736E+00  0.2676E+00
      2.839  0.1970E-01  0.1912E-01  0.2786E+00  0.2724E+00
      3.092  0.2860E-01  0.4555E-01  0.2859E+00  0.2840E+00
      3.346  0.1457E-01  0.2192E-01  0.2895E+00  0.2895E+00
      3.600  0.7608E-02  0.7682E-02  0.2915E+00  0.2915E+00
      3.853  0.1187E-01  0.2693E-02  0.2945E+00  0.2922E+00
      4.107  0.3476E-02  0.1202E-01  0.2954E+00  0.2952E+00
      4.360  0.1749E-01  0.1762E-01  0.2998E+00  0.2997E+00
      4.614  0.8217E-02  0.8714E-02  0.3019E+00  0.3019E+00
      4.868  0.1470E-01  0.1400E-01  0.3056E+00  0.3054E+00
      5.121  0.8495E-02  0.8801E-02  0.3078E+00  0.3077E+00
      5.375  0.2406E-01  0.1942E-01  0.3139E+00  0.3126E+00
      5.628  0.2063E-01  0.1807E-01  0.3191E+00  0.3172E+00
      5.882  0.1926E-01  0.2427E-01  0.3240E+00  0.3233E+00
      6.136  0.9651E-02  0.1183E-01  0.3264E+00  0.3263E+00
      6.389  0.5957E-02  0.4244E-02  0.3279E+00  0.3274E+00
      6.643  0.1520E-01  0.1496E-01  0.3318E+00  0.3312E+00
      6.896  0.2056E-01  0.2294E-01  0.3370E+00  0.3370E+00
      7.150  0.1297E-01  0.5754E-02  0.3403E+00  0.3385E+00
      7.404  0.2566E-01  0.3150E-01  0.3468E+00  0.3465E+00
      7.657  0.2300E-01  0.1921E-01  0.3526E+00  0.3513E+00
      7.911  0.5082E-02  0.1027E-01  0.3539E+00  0.3539E+00
      8.164  0.0000E+00  0.0000E+00  0.3539E+00  0.3539E+00
      8.418  0.0000E+00  0.0000E+00  0.3539E+00  0.3539E+00
      8.672  0.0000E+00  0.0000E+00  0.3539E+00  0.3539E+00
      8.925  0.0000E+00  0.0000E+00  0.3539E+00  0.3539E+00
      9.179  0.0000E+00  0.0000E+00  0.3539E+00  0.3539E+00
      9.432  0.0000E+00  0.0000E+00  0.3539E+00  0.3539E+00
      9.686  0.0000E+00  0.0000E+00  0.3539E+00  0.3539E+00
      9.940  0.0000E+00  0.0000E+00  0.3539E+00  0.3539E+00
     10.193  0.0000E+00  0.0000E+00  0.3539E+00  0.3539E+00
     10.447  0.0000E+00  0.0000E+00  0.3539E+00  0.3539E+00
     10.700  0.0000E+00  0.0000E+00  0.3539E+00  0.3539E+00
     10.954  0.0000E+00  0.0000E+00  0.3539E+00  0.3539E+00
     11.208  0.0000E+00  0.0000E+00  0.3539E+00  0.3539E+00
