       N       E                     dE             d eps       ncg     rms          rms(c)
DAV:   1     0.876764157890E+04    0.87676E+04   -0.37511E+05  2320   0.115E+03
DAV:   2     0.146738058464E+03   -0.86209E+04   -0.79226E+04  2616   0.357E+02
DAV:   3    -0.103707515236E+04   -0.11838E+04   -0.11428E+04  2568   0.144E+02
DAV:   4    -0.110174525329E+04   -0.64670E+02   -0.61494E+02  2728   0.364E+01
DAV:   5    -0.110476718310E+04   -0.30219E+01   -0.29927E+01  3128   0.795E+00    0.199E+02
DAV:   6    -0.171845190877E+04   -0.61368E+03   -0.23867E+03  3392   0.145E+02    0.371E+02
DAV:   7    -0.102104001310E+04    0.69741E+03   -0.14236E+03  3000   0.768E+01    0.164E+02
DAV:   8    -0.162336698524E+04   -0.60233E+03   -0.84824E+02  2984   0.994E+01    0.163E+02
DAV:   9    -0.112857257182E+04    0.49479E+03   -0.43961E+03  3416   0.119E+02    0.275E+02
DAV:  10    -0.103506843358E+04    0.93504E+02   -0.14818E+03  2848   0.388E+01    0.218E+02
DAV:  11    -0.912220115743E+03    0.12285E+03   -0.16392E+02  3160   0.389E+01    0.121E+02
DAV:  12    -0.854309695075E+03    0.57910E+02   -0.14827E+02  3048   0.293E+01    0.761E+01
DAV:  13    -0.850428390277E+03    0.38813E+01   -0.12123E+02  2904   0.381E+01    0.775E+01
DAV:  14    -0.842421305121E+03    0.80071E+01   -0.62589E+01  2968   0.245E+01    0.747E+01
DAV:  15    -0.832311364278E+03    0.10110E+02   -0.50014E+01  2920   0.191E+01    0.518E+01
DAV:  16    -0.842883483070E+03   -0.10572E+02   -0.17739E+01  2792   0.254E+01    0.762E+01
DAV:  17    -0.837760184417E+03    0.51233E+01   -0.34056E+01  3048   0.200E+01    0.663E+01
DAV:  18    -0.829858302666E+03    0.79019E+01   -0.22861E+01  3056   0.156E+01    0.431E+01
DAV:  19    -0.830950525560E+03   -0.10922E+01   -0.60059E+00  2896   0.111E+01    0.387E+01
DAV:  20    -0.835737297654E+03   -0.47868E+01   -0.13665E+01  2912   0.150E+01    0.535E+01
DAV:  21    -0.836978302705E+03   -0.12410E+01   -0.27176E+01  2904   0.130E+01    0.342E+01
DAV:  22    -0.841066853042E+03   -0.40886E+01   -0.95200E+00  2952   0.125E+01    0.324E+01
DAV:  23    -0.855004978173E+03   -0.13938E+02   -0.71150E+00  2944   0.110E+01    0.286E+01
DAV:  24    -0.865442615782E+03   -0.10438E+02   -0.49547E+00  3032   0.868E+00    0.267E+01
DAV:  25    -0.876073499565E+03   -0.10631E+02   -0.73478E+00  2952   0.836E+00    0.262E+01
DAV:  26    -0.886910283346E+03   -0.10837E+02   -0.95383E+00  2952   0.988E+00    0.272E+01
DAV:  27    -0.899136251702E+03   -0.12226E+02   -0.20792E+01  2880   0.127E+01    0.448E+01
DAV:  28    -0.899581895778E+03   -0.44564E+00   -0.97205E+00  2864   0.960E+00    0.340E+01
DAV:  29    -0.898620387699E+03    0.96151E+00   -0.17129E+00  2856   0.513E+00    0.273E+01
DAV:  30    -0.909171233644E+03   -0.10551E+02   -0.93966E+00  2832   0.713E+00    0.192E+01
DAV:  31    -0.923462367034E+03   -0.14291E+02   -0.10930E+01  2872   0.718E+00    0.196E+01
DAV:  32    -0.928470702719E+03   -0.50083E+01   -0.53271E+00  2912   0.617E+00    0.216E+01
DAV:  33    -0.932268576488E+03   -0.37979E+01   -0.25277E+00  2984   0.418E+00    0.240E+01
DAV:  34    -0.932102364524E+03    0.16621E+00   -0.16528E+00  2808   0.460E+00    0.215E+01
DAV:  35    -0.933139302909E+03   -0.10369E+01   -0.11190E+00  3040   0.372E+00    0.236E+01
DAV:  36    -0.935451085201E+03   -0.23118E+01   -0.46861E-01  2776   0.244E+00    0.233E+01
DAV:  37    -0.937157187047E+03   -0.17061E+01   -0.16246E+00  2880   0.342E+00    0.249E+01
DAV:  38    -0.934103429691E+03    0.30538E+01   -0.42694E-01  2768   0.214E+00    0.234E+01
DAV:  39    -0.938866673601E+03   -0.47632E+01   -0.23558E+00  2784   0.309E+00    0.181E+01
DAV:  40    -0.945537288128E+03   -0.66706E+01   -0.63485E-01  2832   0.399E+00    0.182E+01
DAV:  41    -0.948204801010E+03   -0.26675E+01   -0.99946E-01  2720   0.360E+00    0.203E+01
DAV:  42    -0.944509228220E+03    0.36956E+01   -0.29112E-01  2688   0.141E+00    0.207E+01
DAV:  43    -0.943789426502E+03    0.71980E+00   -0.43854E-02  2736   0.398E-01    0.218E+01
DAV:  44    -0.944754577902E+03   -0.96515E+00   -0.73232E-02  2904   0.125E+00    0.193E+01
DAV:  45    -0.946811087023E+03   -0.20565E+01   -0.24286E-01  2928   0.128E+00    0.168E+01
DAV:  46    -0.948183376930E+03   -0.13723E+01   -0.15175E-01  2800   0.111E+00    0.142E+01
DAV:  47    -0.951057744451E+03   -0.28744E+01   -0.31332E-01  2800   0.203E+00    0.118E+01
DAV:  48    -0.952321875185E+03   -0.12641E+01   -0.27210E-01  2840   0.179E+00    0.113E+01
DAV:  49    -0.952749265707E+03   -0.42739E+00   -0.17983E-01  2864   0.140E+00    0.101E+01
DAV:  50    -0.952948992055E+03   -0.19973E+00   -0.18862E-01  2848   0.133E+00    0.886E+00
DAV:  51    -0.954931522116E+03   -0.19825E+01   -0.96538E-01  2848   0.312E+00    0.586E+00
DAV:  52    -0.956627177774E+03   -0.16957E+01   -0.54568E-01  2800   0.227E+00    0.545E+00
DAV:  53    -0.957471295581E+03   -0.84412E+00   -0.22869E-01  2776   0.141E+00    0.580E+00
DAV:  54    -0.957248906704E+03    0.22239E+00   -0.18555E-01  2896   0.128E+00    0.782E+00
DAV:  55    -0.956462626581E+03    0.78628E+00   -0.65607E-02  2704   0.558E-01    0.815E+00
DAV:  56    -0.956670090535E+03   -0.20746E+00   -0.19601E-01  2952   0.242E+00    0.607E+00
DAV:  57    -0.957443181044E+03   -0.77309E+00   -0.21453E-01  2816   0.159E+00    0.484E+00
DAV:  58    -0.957820963994E+03   -0.37778E+00   -0.90348E-02  2840   0.130E+00    0.460E+00
DAV:  59    -0.958232638121E+03   -0.41167E+00   -0.11545E-01  2952   0.142E+00    0.496E+00
DAV:  60    -0.958211440078E+03    0.21198E-01   -0.86849E-02  2896   0.116E+00    0.600E+00
DAV:  61    -0.958178041276E+03    0.33399E-01   -0.61772E-02  2920   0.143E+00    0.682E+00
DAV:  62    -0.958149035841E+03    0.29005E-01   -0.42918E-02  2888   0.684E-01    0.714E+00
DAV:  63    -0.958132778016E+03    0.16258E-01   -0.12146E-02  2936   0.225E-01    0.746E+00
DAV:  64    -0.958030705651E+03    0.10207E+00   -0.30254E-03  2360   0.154E-01    0.742E+00
DAV:  65    -0.957961786248E+03    0.68919E-01   -0.27817E-03  3168   0.400E-01    0.714E+00
DAV:  66    -0.957825311403E+03    0.13647E+00   -0.22313E-02  2856   0.805E-01    0.678E+00
DAV:  67    -0.957964837750E+03   -0.13953E+00   -0.13740E-02  2816   0.460E-01    0.628E+00
DAV:  68    -0.958252587897E+03   -0.28775E+00   -0.15907E-02  2784   0.721E-01    0.527E+00
DAV:  69    -0.958926812917E+03   -0.67423E+00   -0.48256E-02  2824   0.916E-01    0.428E+00
DAV:  70    -0.959646458252E+03   -0.71965E+00   -0.62534E-02  2808   0.107E+00    0.329E+00
DAV:  71    -0.960308233432E+03   -0.66178E+00   -0.80536E-02  2824   0.106E+00    0.261E+00
DAV:  72    -0.960632730744E+03   -0.32450E+00   -0.47008E-02  2896   0.698E-01    0.238E+00
DAV:  73    -0.960944823852E+03   -0.31209E+00   -0.30665E-02  2872   0.689E-01    0.193E+00
DAV:  74    -0.961275439746E+03   -0.33062E+00   -0.32515E-02  2952   0.615E-01    0.185E+00
DAV:  75    -0.961366891967E+03   -0.91452E-01   -0.17226E-02  2968   0.424E-01    0.204E+00
DAV:  76    -0.960903340405E+03    0.46355E+00   -0.31499E-02  2792   0.759E-01    0.144E+00
DAV:  77    -0.961318991559E+03   -0.41565E+00   -0.81074E-03  2808   0.372E-01    0.108E+00
DAV:  78    -0.961570411937E+03   -0.25142E+00   -0.71227E-03  2872   0.344E-01    0.971E-01
DAV:  79    -0.961775966647E+03   -0.20555E+00   -0.74204E-03  3000   0.302E-01    0.674E-01
DAV:  80    -0.961935392004E+03   -0.15943E+00   -0.45641E-03  3040   0.328E-01    0.562E-01
DAV:  81    -0.961980896816E+03   -0.45505E-01   -0.44865E-03  2832   0.283E-01    0.587E-01
DAV:  82    -0.962040642895E+03   -0.59746E-01   -0.15968E-03  2872   0.136E-01    0.640E-01
DAV:  83    -0.962205559942E+03   -0.16492E+00   -0.13689E-03  2928   0.129E-01    0.569E-01
DAV:  84    -0.962301985388E+03   -0.96425E-01   -0.96181E-04  2904   0.127E-01    0.523E-01
DAV:  85    -0.962327569444E+03   -0.25584E-01   -0.44021E-04  2984   0.629E-02    0.469E-01
DAV:  86    -0.962364358515E+03   -0.36789E-01   -0.99438E-04  2992   0.179E-01    0.368E-01
DAV:  87    -0.962364697558E+03   -0.33904E-03   -0.51884E-04  2984   0.916E-02    0.246E-01
DAV:  88    -0.962367195809E+03   -0.24983E-02   -0.21440E-04  2800   0.385E-02    0.191E-01
DAV:  89    -0.962370267664E+03   -0.30719E-02   -0.94049E-05  2848   0.455E-02    0.137E-01
DAV:  90    -0.962370741288E+03   -0.47362E-03   -0.79462E-05  2560   0.382E-02    0.775E-02
DAV:  91    -0.962373272674E+03   -0.25314E-02   -0.94867E-05  2752   0.442E-02    0.410E-02
DAV:  92    -0.962375318093E+03   -0.20454E-02   -0.84692E-05  2472   0.229E-02    0.220E-02
DAV:  93    -0.962375912835E+03   -0.59474E-03   -0.10496E-05  1752   0.125E-02    0.141E-02
DAV:  94    -0.962376508351E+03   -0.59552E-03   -0.76134E-06  1744   0.696E-03    0.990E-03
DAV:  95    -0.962376907295E+03   -0.39894E-03   -0.95560E-06  1848   0.445E-03    0.709E-03
DAV:  96    -0.962377319017E+03   -0.41172E-03   -0.27233E-06  1680   0.382E-03    0.607E-03
DAV:  97    -0.962377751948E+03   -0.43293E-03   -0.31785E-06  1704   0.408E-03    0.506E-03
DAV:  98    -0.962377938593E+03   -0.18665E-03   -0.16553E-06  1664   0.303E-03    0.313E-03
DAV:  99    -0.962378130009E+03   -0.19142E-03   -0.13765E-06  1664   0.201E-03    0.265E-03
DAV: 100    -0.962378268141E+03   -0.13813E-03   -0.10773E-06  1648   0.189E-03    0.202E-03
DAV: 101    -0.962378338186E+03   -0.70044E-04   -0.67826E-07  1624   0.161E-03    0.158E-03
DAV: 102    -0.962378365669E+03   -0.27484E-04   -0.39069E-07  1600   0.122E-03    0.175E-03
DAV: 103    -0.962378394071E+03   -0.28402E-04   -0.31920E-07  1624   0.924E-04    0.165E-03
DAV: 104    -0.962378407236E+03   -0.13165E-04   -0.22369E-07  1584   0.769E-04    0.134E-03
DAV: 105    -0.962378413285E+03   -0.60488E-05   -0.11911E-07  1568   0.540E-04
   1 F= -.98256744E+03 E0= -.98254751E+03  d E =-.398623E-01  mag=    20.6162
       N       E                     dE             d eps       ncg     rms          rms(c)
DAV:   1    -0.962377440525E+03    0.96671E-03   -0.11885E-01  2120   0.168E-01    0.964E-02
DAV:   2    -0.962377591021E+03   -0.15050E-03   -0.10495E-03  2312   0.204E-02    0.584E-02
DAV:   3    -0.962377635571E+03   -0.44550E-04   -0.38531E-05  1984   0.774E-03    0.224E-02
DAV:   4    -0.962377642955E+03   -0.73834E-05   -0.69696E-06  1792   0.896E-03
   2 F= -.98256667E+03 E0= -.98254671E+03  d E =-.399296E-01  mag=    20.6161
       N       E                     dE             d eps       ncg     rms          rms(c)
DAV:   1    -0.962376984718E+03    0.65085E-03   -0.47389E-01  2128   0.335E-01    0.194E-01
DAV:   2    -0.962377932162E+03   -0.94744E-03   -0.48657E-03  2640   0.109E-01    0.351E-01
DAV:   3    -0.962377658759E+03    0.27340E-03   -0.45069E-04  2800   0.140E-01    0.266E-01
DAV:   4    -0.962377726473E+03   -0.67713E-04   -0.23915E-04  2424   0.804E-02    0.126E-01
DAV:   5    -0.962377749089E+03   -0.22616E-04   -0.20209E-04  2432   0.867E-02    0.653E-02
DAV:   6    -0.962377816956E+03   -0.67867E-04   -0.47598E-05  1928   0.463E-02    0.455E-02
DAV:   7    -0.962377820739E+03   -0.37828E-05   -0.10587E-05  1624   0.186E-02
   3 F= -.98256685E+03 E0= -.98254685E+03  d E =-.400038E-01  mag=    20.6162
       N       E                     dE             d eps       ncg     rms          rms(c)
DAV:   1    -0.962377211486E+03    0.60547E-03   -0.23724E-01  2128   0.237E-01    0.135E-01
DAV:   2    -0.962377557236E+03   -0.34575E-03   -0.24714E-03  2440   0.388E-02    0.937E-02
DAV:   3    -0.962378186517E+03   -0.62928E-03   -0.29894E-04  2728   0.112E-01    0.467E-01
DAV:   4    -0.962377239458E+03    0.94706E-03   -0.26575E-04  2488   0.114E-01    0.463E-02
DAV:   5    -0.962377617988E+03   -0.37853E-03   -0.14316E-04  2128   0.586E-02    0.646E-02
DAV:   6    -0.962377644019E+03   -0.26031E-04   -0.42528E-05  1880   0.387E-02    0.388E-02
DAV:   7    -0.962377636696E+03    0.73229E-05   -0.63037E-06  1520   0.126E-02
   4 F= -.98256667E+03 E0= -.98254678E+03  d E =-.397708E-01  mag=    20.6162
       N       E                     dE             d eps       ncg     rms          rms(c)
DAV:   1    -0.962376960373E+03    0.68365E-03   -0.47333E-01  2112   0.330E-01    0.192E-01
DAV:   2    -0.962377632375E+03   -0.67200E-03   -0.48263E-03  2368   0.492E-02    0.119E-01
DAV:   3    -0.962378027403E+03   -0.39503E-03   -0.26229E-04  2672   0.837E-02    0.278E-01
DAV:   4    -0.962377669706E+03    0.35770E-03   -0.19148E-04  2624   0.997E-02    0.120E-01
DAV:   5    -0.962377819086E+03   -0.14938E-03   -0.10801E-04  2152   0.678E-02    0.644E-02
DAV:   6    -0.962377810714E+03    0.83724E-05   -0.51728E-05  1992   0.483E-02
   5 F= -.98256684E+03 E0= -.98254688E+03  d E =-.399186E-01  mag=    20.6161
       N       E                     dE             d eps       ncg     rms          rms(c)
DAV:   1    -0.962373292188E+03    0.45269E-02   -0.23422E-01  2128   0.251E-01    0.226E-01
DAV:   2    -0.962373417302E+03   -0.12511E-03   -0.70533E-03  2464   0.672E-02    0.136E-01
DAV:   3    -0.962373673352E+03   -0.25605E-03   -0.13339E-03  2728   0.117E-01    0.291E-01
DAV:   4    -0.962373377480E+03    0.29587E-03   -0.38775E-04  2656   0.125E-01    0.214E-01
DAV:   5    -0.962373370625E+03    0.68556E-05   -0.30198E-04  2264   0.102E-01    0.102E-01
DAV:   6    -0.962373397409E+03   -0.26784E-04   -0.17721E-04  2216   0.718E-02    0.308E-02
DAV:   7    -0.962373418766E+03   -0.21358E-04   -0.30394E-05  2016   0.317E-02    0.362E-02
DAV:   8    -0.962373415617E+03    0.31493E-05   -0.19882E-05  1768   0.299E-02
   6 F= -.98256201E+03 E0= -.98254207E+03  d E =-.398782E-01  mag=    20.6161
       N       E                     dE             d eps       ncg     rms          rms(c)
DAV:   1    -0.962368160994E+03    0.52578E-02   -0.47616E-01  2168   0.352E-01    0.435E-01
DAV:   2    -0.962368063625E+03    0.97369E-04   -0.25409E-02  2376   0.948E-02    0.240E-01
DAV:   3    -0.962367782672E+03    0.28095E-03   -0.37682E-03  2592   0.698E-02    0.155E-01
DAV:   4    -0.962368876873E+03   -0.10942E-02   -0.97885E-04  2824   0.182E-01    0.562E-01
DAV:   5    -0.962367256667E+03    0.16202E-02   -0.58885E-04  2608   0.165E-01    0.878E-02
DAV:   6    -0.962367699518E+03   -0.44285E-03   -0.30984E-04  2480   0.104E-01    0.109E-01
DAV:   7    -0.962367738603E+03   -0.39085E-04   -0.14730E-04  2288   0.681E-02    0.789E-02
DAV:   8    -0.962367713844E+03    0.24759E-04   -0.27271E-05  1840   0.288E-02    0.218E-02
DAV:   9    -0.962367746140E+03   -0.32296E-04   -0.63158E-06  1616   0.126E-02    0.109E-02
DAV:  10    -0.962367761616E+03   -0.15476E-04   -0.25921E-06  1576   0.746E-03    0.746E-03
DAV:  11    -0.962367767978E+03   -0.63615E-05   -0.19060E-06  1664   0.663E-03
   7 F= -.98255723E+03 E0= -.98253727E+03  d E =-.399240E-01  mag=    20.6162
