 vasp.6.1.2 22Jul20 (build Aug 13 2020 05:52:35) gamma-only                     
  
 executed on             LinuxIFC date 2025.03.12  16:03:02
 running on   32 total cores
 distrk:  each k-point on   32 cores,    1 groups
 distr:  one band on NCORE=   4 cores,    8 groups


--------------------------------------------------------------------------------------------------------


 INCAR:
 POTCAR:    PAW_PBE Mo_sv 02Feb2006               
 POTCAR:    PAW_PBE N 08Apr2002                   
 POTCAR:    PAW_PBE Si 05Jan2001                  
 POTCAR:    PAW_PBE Ni 02Aug2007                  
 POTCAR:    PAW_PBE O 08Apr2002                   
 POTCAR:    PAW_PBE Te 08Apr2002                  
 POTCAR:    PAW_PBE H 15Jun2001                   
 -----------------------------------------------------------------------------
|                                                                             |
|           W    W    AA    RRRRR   N    N  II  N    N   GGGG   !!!           |
|           W    W   A  A   R    R  NN   N  II  NN   N  G    G  !!!           |
|           W    W  A    A  R    R  N N  N  II  N N  N  G       !!!           |
|           W WW W  AAAAAA  RRRRR   N  N N  II  N  N N  G  GGG   !            |
|           WW  WW  A    A  R   R   N   NN  II  N   NN  G    G                |
|           W    W  A    A  R    R  N    N  II  N    N   GGGG   !!!           |
|                                                                             |
|     You use a magnetic or noncollinear calculation, but did not specify     |
|     the initial magnetic moment with the MAGMOM tag. Note that a            |
|     default of 1 will be used for all atoms. This ferromagnetic setup       |
|     may break the symmetry of the crystal, in particular it may rule        |
|     out finding an antiferromagnetic solution. Thence, we recommend         |
|     setting the initial magnetic moment manually or verifying carefully     |
|     that this magnetic setup is desired.                                    |
|                                                                             |
 -----------------------------------------------------------------------------

 POTCAR:    PAW_PBE Mo_sv 02Feb2006               
   SHA256 =  2731df97e41766cc617548c5a8267718fdef1f509ac6bafa01e745abea2bdfaa Mo_sv/POTCAR          
   COPYR  = (c) Copyright 02Feb2006 Georg Kresse                                                    
   COPYR  = This file is part of the software VASP. Any use, copying, and all other rights are regul
   COPYR  = If you do not have a valid VASP license, you may not use, copy or distribute this file. 
   VRHFIN =Mo: 4p5s4d                                                                               
   LEXCH  = PE                                                                                      
   EATOM  =  1862.2866 eV,  136.8742 Ry                                                             
                                                                                                    
   TITEL  = PAW_PBE Mo_sv 02Feb2006                                                                 
   LULTRA =        F    use ultrasoft PP ?                                                          
   IUNSCR =        1    unscreen: 0-lin 1-nonlin 2-no                                               
   RPACOR =    2.200    partial core radius                                                         
   POMASS =   95.940; ZVAL   =   14.000    mass and valenz                                          
   RCORE  =    2.500    outmost cutoff radius                                                       
   RWIGS  =    2.750; RWIGS  =    1.455    wigner-seitz radius (au A)                               
   ENMAX  =  242.676; ENMIN  =  182.007 eV                                                          
   ICORE  =        3    local potential                                                             
   LCOR   =        T    correct aug charges                                                         
   LPAW   =        T    paw PP                                                                      
   EAUG   =  446.014                                                                                
   DEXC   =    0.000                                                                                
   RMAX   =    2.563    core radius for proj-oper                                                   
   RAUG   =    1.300    factor for augmentation sphere                                              
   RDEP   =    2.641    radius for radial grids                                                     
   RDEPT  =    2.031    core radius for aug-charge                                                  
                                                                                                    
   Atomic configuration                                                                             
   11 entries                                                                                       
     n  l   j            E        occ.                                                              
     1  0  0.50    -19819.0341   2.0000                                                             
     2  0  0.50     -2799.0127   2.0000                                                             
     2  1  1.50     -2502.0276   6.0000                                                             
     3  0  0.50      -476.4449   2.0000                                                             
     3  1  1.50      -379.1496   6.0000                                                             
     3  2  2.50      -220.9367  10.0000                                                             
     4  0  0.50       -64.3378   2.0000                                                             
     5  0  0.50        -4.0862   1.0000                                                             
     4  1  1.50       -38.4773   6.0000                                                             
     4  2  2.50        -3.7535   5.0000                                                             
     4  3  2.50        -1.3606   0.0000                                                             
   Description                                                                                      
     l       E           TYP  RCUT    TYP  RCUT                                                     
     0    -64.3377829     23  2.100                                                                 
     0     -4.0861640     23  2.400                                                                 
     1    -38.4772993     23  2.100                                                                 
     1     13.6058260     23  2.100                                                                 
     2     -3.7534941     23  2.400                                                                 
     2     -5.1140767     23  2.400                                                                 
     3     -4.0817478     23  2.500                                                                 
  local pseudopotential read in
  partial core-charges read in
  partial kinetic energy density read in
  atomic valenz-charges read in
  non local Contribution for L=           0  read in
    real space projection operators read in
  non local Contribution for L=           0  read in
    real space projection operators read in
  non local Contribution for L=           1  read in
    real space projection operators read in
  non local Contribution for L=           1  read in
    real space projection operators read in
  non local Contribution for L=           2  read in
    real space projection operators read in
  non local Contribution for L=           2  read in
    real space projection operators read in
    PAW grid and wavefunctions read in
 
   number of l-projection  operators is LMAX  =           6
   number of lm-projection operators is LMMAX =          18
 
 POTCAR:    PAW_PBE N 08Apr2002                   
   SHA256 =  e053789ff3a61a86a1b75d8a110fcc91f86041011e7b0817c7c99e4e8a6349d7 N/POTCAR              
   COPYR  = (c) Copyright 08Apr2002 Georg Kresse                                                    
   COPYR  = This file is part of the software VASP. Any use, copying, and all other rights are regul
   COPYR  = If you do not have a valid VASP license, you may not use, copy or distribute this file. 
   VRHFIN =N: s2p3                                                                                  
   LEXCH  = PE                                                                                      
   EATOM  =   264.5486 eV,   19.4438 Ry                                                             
                                                                                                    
   TITEL  = PAW_PBE N 08Apr2002                                                                     
   LULTRA =        F    use ultrasoft PP ?                                                          
   IUNSCR =        1    unscreen: 0-lin 1-nonlin 2-no                                               
   RPACOR =    1.200    partial core radius                                                         
   POMASS =   14.001; ZVAL   =    5.000    mass and valenz                                          
   RCORE  =    1.500    outmost cutoff radius                                                       
   RWIGS  =    1.400; RWIGS  =    0.741    wigner-seitz radius (au A)                               
   ENMAX  =  400.000; ENMIN  =  300.000 eV                                                          
   ICORE  =        2    local potential                                                             
   LCOR   =        T    correct aug charges                                                         
   LPAW   =        T    paw PP                                                                      
   EAUG   =  627.112                                                                                
   DEXC   =    0.000                                                                                
   RMAX   =    1.529    core radius for proj-oper                                                   
   RAUG   =    1.300    factor for augmentation sphere                                              
   RDEP   =    1.514    radius for radial grids                                                     
   RDEPT  =    1.338    core radius for aug-charge                                                  
                                                                                                    
   Atomic configuration                                                                             
    4 entries                                                                                       
     n  l   j            E        occ.                                                              
     1  0  0.50      -384.7179   2.0000                                                             
     2  0  0.50       -18.5828   2.0000                                                             
     2  1  0.50        -7.0898   3.0000                                                             
     3  2  1.50        -6.8029   0.0000                                                             
   Description                                                                                      
     l       E           TYP  RCUT    TYP  RCUT                                                     
     0    -18.5828119     23  1.200                                                                 
     0    -13.5018863     23  1.200                                                                 
     1     -7.0897853     23  1.500                                                                 
     1      9.5240782     23  1.500                                                                 
     2     -6.8029130      7  1.500                                                                 
  local pseudopotential read in
  partial core-charges read in
  partial kinetic energy density read in
  atomic valenz-charges read in
  non local Contribution for L=           0  read in
    real space projection operators read in
  non local Contribution for L=           0  read in
    real space projection operators read in
  non local Contribution for L=           1  read in
    real space projection operators read in
  non local Contribution for L=           1  read in
    real space projection operators read in
    PAW grid and wavefunctions read in
 
   number of l-projection  operators is LMAX  =           4
   number of lm-projection operators is LMMAX =           8
 
 POTCAR:    PAW_PBE Si 05Jan2001                  
   SHA256 =  79d9987ad8750f624c4d6acb2a16d13abf6a777132adc04dc6c8399be72b42bb Si/POTCAR             
   COPYR  = (c) Copyright 05Jan2001 Georg Kresse                                                    
   COPYR  = This file is part of the software VASP. Any use, copying, and all other rights are regul
   COPYR  = If you do not have a valid VASP license, you may not use, copy or distribute this file. 
   VRHFIN =Si: s2p2                                                                                 
   LEXCH  = PE                                                                                      
   EATOM  =   103.0669 eV,    7.5752 Ry                                                             
                                                                                                    
   TITEL  = PAW_PBE Si 05Jan2001                                                                    
   LULTRA =        F    use ultrasoft PP ?                                                          
   IUNSCR =        1    unscreen: 0-lin 1-nonlin 2-no                                               
   RPACOR =    1.500    partial core radius                                                         
   POMASS =   28.085; ZVAL   =    4.000    mass and valenz                                          
   RCORE  =    1.900    outmost cutoff radius                                                       
   RWIGS  =    2.480; RWIGS  =    1.312    wigner-seitz radius (au A)                               
   ENMAX  =  245.345; ENMIN  =  184.009 eV                                                          
   ICORE  =        2    local potential                                                             
   LCOR   =        T    correct aug charges                                                         
   LPAW   =        T    paw PP                                                                      
   EAUG   =  322.069                                                                                
   DEXC   =    0.000                                                                                
   RMAX   =    1.950    core radius for proj-oper                                                   
   RAUG   =    1.300    factor for augmentation sphere                                              
   RDEP   =    1.993    radius for radial grids                                                     
   RDEPT  =    1.837    core radius for aug-charge                                                  
                                                                                                    
   Atomic configuration                                                                             
    6 entries                                                                                       
     n  l   j            E        occ.                                                              
     1  0  0.50     -1785.8828   2.0000                                                             
     2  0  0.50      -139.4969   2.0000                                                             
     2  1  1.50       -95.5546   6.0000                                                             
     3  0  0.50       -10.8127   2.0000                                                             
     3  1  0.50        -4.0811   2.0000                                                             
     3  2  1.50        -4.0817   0.0000                                                             
   Description                                                                                      
     l       E           TYP  RCUT    TYP  RCUT                                                     
     0    -10.8127223     23  1.900                                                                 
     0     -7.6451159     23  1.900                                                                 
     1     -4.0811372     23  1.900                                                                 
     1      2.4879257     23  1.900                                                                 
     2     -4.0817478      7  1.900                                                                 
  local pseudopotential read in
  partial core-charges read in
  partial kinetic energy density read in
  atomic valenz-charges read in
  non local Contribution for L=           0  read in
    real space projection operators read in
  non local Contribution for L=           0  read in
    real space projection operators read in
  non local Contribution for L=           1  read in
    real space projection operators read in
  non local Contribution for L=           1  read in
    real space projection operators read in
    PAW grid and wavefunctions read in
 
   number of l-projection  operators is LMAX  =           4
   number of lm-projection operators is LMMAX =           8
 
 POTCAR:    PAW_PBE Ni 02Aug2007                  
   SHA256 =  0534bc51ca8003dfef23f56753fef9fdd3e22eac8d719fccacb59f3e6b7a69c7 Ni/POTCAR             
   COPYR  = (c) Copyright 02Aug2007 Georg Kresse                                                    
   COPYR  = This file is part of the software VASP. Any use, copying, and all other rights are regul
   COPYR  = If you do not have a valid VASP license, you may not use, copy or distribute this file. 
   VRHFIN =Ni:                                                                                      
   LEXCH  = PE                                                                                      
   EATOM  =  1077.6739 eV,   79.2068 Ry                                                             
                                                                                                    
   TITEL  = PAW_PBE Ni 02Aug2007                                                                    
   LULTRA =        F    use ultrasoft PP ?                                                          
   IUNSCR =        1    unscreen: 0-lin 1-nonlin 2-no                                               
   RPACOR =    2.000    partial core radius                                                         
   POMASS =   58.690; ZVAL   =   10.000    mass and valenz                                          
   RCORE  =    2.300    outmost cutoff radius                                                       
   RWIGS  =    2.430; RWIGS  =    1.286    wigner-seitz radius (au A)                               
   ENMAX  =  269.532; ENMIN  =  202.149 eV                                                          
   RCLOC  =    1.201    cutoff for local pot                                                        
   LCOR   =        T    correct aug charges                                                         
   LPAW   =        T    paw PP                                                                      
   EAUG   =  544.565                                                                                
   DEXC   =    0.000                                                                                
   RMAX   =    2.357    core radius for proj-oper                                                   
   RAUG   =    1.300    factor for augmentation sphere                                              
   RDEP   =    2.390    radius for radial grids                                                     
   RDEPT  =    1.838    core radius for aug-charge                                                  
                                                                                                    
   Atomic configuration                                                                             
    9 entries                                                                                       
     n  l   j            E        occ.                                                              
     1  0  0.50     -8206.4253   2.0000                                                             
     2  0  0.50      -976.1748   2.0000                                                             
     2  1  1.50      -839.0571   6.0000                                                             
     3  0  0.50      -105.9991   2.0000                                                             
     3  1  1.50       -66.4603   6.0000                                                             
     3  2  2.50        -4.6458   9.0000                                                             
     4  0  0.50        -4.4926   1.0000                                                             
     4  1  1.50        -4.0817   0.0000                                                             
     4  3  2.50        -1.3606   0.0000                                                             
   Description                                                                                      
     l       E           TYP  RCUT    TYP  RCUT                                                     
     2     -4.6457903     23  2.300                                                                 
     2     -6.0063729     23  2.300                                                                 
     0     -4.4925590     23  2.300                                                                 
     0      5.0102601     23  2.300                                                                 
     1     -2.7211652     23  2.300                                                                 
     1     16.5183231     23  2.300                                                                 
  local pseudopotential read in
  partial core-charges read in
  partial kinetic energy density read in
  atomic valenz-charges read in
  non local Contribution for L=           2  read in
    real space projection operators read in
  non local Contribution for L=           2  read in
    real space projection operators read in
  non local Contribution for L=           0  read in
    real space projection operators read in
  non local Contribution for L=           0  read in
    real space projection operators read in
  non local Contribution for L=           1  read in
    real space projection operators read in
  non local Contribution for L=           1  read in
    real space projection operators read in
    PAW grid and wavefunctions read in
 
   number of l-projection  operators is LMAX  =           6
   number of lm-projection operators is LMMAX =          18
 
 POTCAR:    PAW_PBE O 08Apr2002                   
   SHA256 =  818f92134a0a090dccd8ba1447fa70422a3b330e708bb4f08108d8ae51209ddf O/POTCAR              
   COPYR  = (c) Copyright 08Apr2002 Georg Kresse                                                    
   COPYR  = This file is part of the software VASP. Any use, copying, and all other rights are regul
   COPYR  = If you do not have a valid VASP license, you may not use, copy or distribute this file. 
   VRHFIN =O: s2p4                                                                                  
   LEXCH  = PE                                                                                      
   EATOM  =   432.3788 eV,   31.7789 Ry                                                             
                                                                                                    
   TITEL  = PAW_PBE O 08Apr2002                                                                     
   LULTRA =        F    use ultrasoft PP ?                                                          
   IUNSCR =        1    unscreen: 0-lin 1-nonlin 2-no                                               
   RPACOR =    1.200    partial core radius                                                         
   POMASS =   16.000; ZVAL   =    6.000    mass and valenz                                          
   RCORE  =    1.520    outmost cutoff radius                                                       
   RWIGS  =    1.550; RWIGS  =    0.820    wigner-seitz radius (au A)                               
   ENMAX  =  400.000; ENMIN  =  300.000 eV                                                          
   ICORE  =        2    local potential                                                             
   LCOR   =        T    correct aug charges                                                         
   LPAW   =        T    paw PP                                                                      
   EAUG   =  605.392                                                                                
   DEXC   =    0.000                                                                                
   RMAX   =    1.553    core radius for proj-oper                                                   
   RAUG   =    1.300    factor for augmentation sphere                                              
   RDEP   =    1.550    radius for radial grids                                                     
   RDEPT  =    1.329    core radius for aug-charge                                                  
                                                                                                    
   Atomic configuration                                                                             
    4 entries                                                                                       
     n  l   j            E        occ.                                                              
     1  0  0.50      -514.6923   2.0000                                                             
     2  0  0.50       -23.9615   2.0000                                                             
     2  1  0.50        -9.0305   4.0000                                                             
     3  2  1.50        -9.5241   0.0000                                                             
   Description                                                                                      
     l       E           TYP  RCUT    TYP  RCUT                                                     
     0    -23.9615318     23  1.200                                                                 
     0     -9.5240782     23  1.200                                                                 
     1     -9.0304911     23  1.520                                                                 
     1      8.1634956     23  1.520                                                                 
     2     -9.5240782      7  1.500                                                                 
  local pseudopotential read in
  partial core-charges read in
  partial kinetic energy density read in
  kinetic energy density of atom read in
  atomic valenz-charges read in
  non local Contribution for L=           0  read in
    real space projection operators read in
  non local Contribution for L=           0  read in
    real space projection operators read in
  non local Contribution for L=           1  read in
    real space projection operators read in
  non local Contribution for L=           1  read in
    real space projection operators read in
    PAW grid and wavefunctions read in
 
   number of l-projection  operators is LMAX  =           4
   number of lm-projection operators is LMMAX =           8
 
 POTCAR:    PAW_PBE Te 08Apr2002                  
   SHA256 =  e13b0861f25acb1fe6cdc17458a3647985498b67a429eb77ddc1eac05a1775b1 Te/POTCAR             
   COPYR  = (c) Copyright 08Apr2002 Georg Kresse                                                    
   COPYR  = This file is part of the software VASP. Any use, copying, and all other rights are regul
   COPYR  = If you do not have a valid VASP license, you may not use, copy or distribute this file. 
   VRHFIN =Te: s2p4                                                                                 
   LEXCH  = PE                                                                                      
   EATOM  =   223.2721 eV,   16.4100 Ry                                                             
                                                                                                    
   TITEL  = PAW_PBE Te 08Apr2002                                                                    
   LULTRA =        F    use ultrasoft PP ?                                                          
   IUNSCR =        1    unscreen: 0-lin 1-nonlin 2-no                                               
   RPACOR =    2.200    partial core radius                                                         
   POMASS =  127.600; ZVAL   =    6.000    mass and valenz                                          
   RCORE  =    2.300    outmost cutoff radius                                                       
   RWIGS  =    2.900; RWIGS  =    1.535    wigner-seitz radius (au A)                               
   ENMAX  =  174.982; ENMIN  =  131.236 eV                                                          
   ICORE  =        3    local potential                                                             
   LCOR   =        T    correct aug charges                                                         
   LPAW   =        T    paw PP                                                                      
   EAUG   =  368.792                                                                                
   DEXC   =    0.000                                                                                
   RMAX   =    2.345    core radius for proj-oper                                                   
   RAUG   =    1.300    factor for augmentation sphere                                              
   RDEP   =    2.397    radius for radial grids                                                     
   RDEPT  =    2.174    core radius for aug-charge                                                  
                                                                                                    
   Atomic configuration                                                                             
   13 entries                                                                                       
     n  l   j            E        occ.                                                              
     1  0  0.50    -31621.2075   2.0000                                                             
     2  0  0.50     -4848.7941   2.0000                                                             
     2  1  1.50     -4352.1960   6.0000                                                             
     3  0  0.50      -964.9612   2.0000                                                             
     3  1  1.50      -803.6179   6.0000                                                             
     3  2  2.50      -559.8710  10.0000                                                             
     4  0  0.50      -164.3522   2.0000                                                             
     4  1  1.50      -114.3756   6.0000                                                             
     4  2  2.50       -41.6483  10.0000                                                             
     5  0  0.50       -15.1072   2.0000                                                             
     5  1  0.50        -5.9526   4.0000                                                             
     5  2  1.50        -5.4423   0.0000                                                             
     4  3  2.50        -5.4423   0.0000                                                             
   Description                                                                                      
     l       E           TYP  RCUT    TYP  RCUT                                                     
     0    -15.1072389     23  2.300                                                                 
     0    -16.4678215     23  2.300                                                                 
     1     -5.9526306     23  2.300                                                                 
     1     -2.4873968     23  2.300                                                                 
     2     -5.4423304     23  2.300                                                                 
     3     -1.3605826     23  2.300                                                                 
  local pseudopotential read in
  partial core-charges read in
  partial kinetic energy density read in
  atomic valenz-charges read in
  non local Contribution for L=           0  read in
    real space projection operators read in
  non local Contribution for L=           0  read in
    real space projection operators read in
  non local Contribution for L=           1  read in
    real space projection operators read in
  non local Contribution for L=           1  read in
    real space projection operators read in
  non local Contribution for L=           2  read in
    real space projection operators read in
    PAW grid and wavefunctions read in
 
   number of l-projection  operators is LMAX  =           5
   number of lm-projection operators is LMMAX =          13
 
 POTCAR:    PAW_PBE H 15Jun2001                   
   SHA256 =  030f79b5d3ab3cf0e668861823c8fb652ff669f3e15e46930bd03bfd63a607b6 H/POTCAR              
   COPYR  = (c) Copyright 15Jun2001 Georg Kresse                                                    
   COPYR  = This file is part of the software VASP. Any use, copying, and all other rights are regul
   COPYR  = If you do not have a valid VASP license, you may not use, copy or distribute this file. 
   VRHFIN =H: ultrasoft test                                                                        
   LEXCH  = PE                                                                                      
   EATOM  =    12.4884 eV,    0.9179 Ry                                                             
                                                                                                    
   TITEL  = PAW_PBE H 15Jun2001                                                                     
   LULTRA =        F    use ultrasoft PP ?                                                          
   IUNSCR =        0    unscreen: 0-lin 1-nonlin 2-no                                               
   RPACOR =    0.000    partial core radius                                                         
   POMASS =    1.000; ZVAL   =    1.000    mass and valenz                                          
   RCORE  =    1.100    outmost cutoff radius                                                       
   RWIGS  =    0.700; RWIGS  =    0.370    wigner-seitz radius (au A)                               
   ENMAX  =  250.000; ENMIN  =  200.000 eV                                                          
   RCLOC  =    0.701    cutoff for local pot                                                        
   LCOR   =        T    correct aug charges                                                         
   LPAW   =        T    paw PP                                                                      
   EAUG   =  400.000                                                                                
   RMAX   =    1.123    core radius for proj-oper                                                   
   RAUG   =    1.200    factor for augmentation sphere                                              
   RDEP   =    1.112    radius for radial grids                                                     
   RDEPT  =    0.926    core radius for aug-charge                                                  
                                                                                                    
   Atomic configuration                                                                             
    2 entries                                                                                       
     n  l   j            E        occ.                                                              
     1  0  0.50        -6.4927   1.0000                                                             
     2  1  0.50        -3.4015   0.0000                                                             
   Description                                                                                      
     l       E           TYP  RCUT    TYP  RCUT                                                     
     0     -6.4927494     23  1.100                                                                 
     0      6.8029130     23  1.100                                                                 
     1     -4.0817478     23  1.100                                                                 
  local pseudopotential read in
  atomic valenz-charges read in
  non local Contribution for L=           0  read in
    real space projection operators read in
  non local Contribution for L=           0  read in
    real space projection operators read in
  non local Contribution for L=           1  read in
    real space projection operators read in
    PAW grid and wavefunctions read in
 
   number of l-projection  operators is LMAX  =           3
   number of lm-projection operators is LMMAX =           5
 
 -----------------------------------------------------------------------------
|                                                                             |
|               ----> ADVICE to this user running VASP <----                  |
|                                                                             |
|     You have a (more or less) 'large supercell' and for larger cells it     |
|     might be more efficient to use real-space projection operators.         |
|     Therefore, try LREAL= Auto in the INCAR file.                           |
|     Mind: For very accurate calculation, you might also keep the            |
|     reciprocal projection scheme (i.e. LREAL=.FALSE.).                      |
|                                                                             |
 -----------------------------------------------------------------------------

  PAW_PBE Mo_sv 02Feb2006               :
 energy of atom  1       EATOM=-1862.2866
 kinetic energy error for atom=    0.0181 (will be added to EATOM!!)
  PAW_PBE N 08Apr2002                   :
 energy of atom  2       EATOM= -264.5486
 kinetic energy error for atom=    0.0736 (will be added to EATOM!!)
  PAW_PBE Si 05Jan2001                  :
 energy of atom  3       EATOM= -103.0669
 kinetic energy error for atom=    0.0012 (will be added to EATOM!!)
  PAW_PBE Ni 02Aug2007                  :
 energy of atom  4       EATOM=-1077.6739
 kinetic energy error for atom=    0.0101 (will be added to EATOM!!)
  PAW_PBE O 08Apr2002                   :
 energy of atom  5       EATOM= -432.3788
 kinetic energy error for atom=    0.1156 (will be added to EATOM!!)
  PAW_PBE Te 08Apr2002                  :
 energy of atom  6       EATOM= -223.2721
 kinetic energy error for atom=    0.0011 (will be added to EATOM!!)
  PAW_PBE H 15Jun2001                   :
 energy of atom  7       EATOM=  -12.4884
 kinetic energy error for atom=    0.0098 (will be added to EATOM!!)
 
 
 POSCAR: Generated by VASPKIT code
  positions in direct lattice
  No initial velocities read in
 exchange correlation table for  LEXCH =        8
   RHO(1)=    0.500       N(1)  =     2000
   RHO(2)=  100.500       N(2)  =     4000
 


--------------------------------------------------------------------------------------------------------


 ion  position               nearest neighbor table
   1  0.167  0.000  0.610-  29 2.10  46 2.11  13 2.11  50 2.11  33 2.11  17 2.11   8 2.93   5 2.93
                             6 2.93   9 2.93  11 2.93  10 2.93
   2  0.166  0.500  0.610-  45 2.10  14 2.10  30 2.10  18 2.10  49 2.11  34 2.12   7 2.93  10 2.93
                             6 2.93   9 2.93  12 2.93   5 2.94
   3  0.667  0.000  0.610-  31 2.10  15 2.10  35 2.10  19 2.11  48 2.11  52 2.12   8 2.93   7 2.93
                             9 2.93  11 2.93  12 2.93   6 2.94
   4  0.667  0.500  0.610-  32 2.10  47 2.10  51 2.10  36 2.11  16 2.11  20 2.12   5 2.93   7 2.93
                            11 2.93  10 2.93  12 2.93   8 2.94
   5  0.334  0.333  0.610-  13 2.10  47 2.10  51 2.10  17 2.11  30 2.11  34 2.12   4 2.93   1 2.93
                            11 2.93   9 2.93  12 2.93   2 2.94
   6  0.333  0.833  0.610-  14 2.10  29 2.10  18 2.10  33 2.11  48 2.11  52 2.12   2 2.93   1 2.93
                            10 2.93  11 2.93  12 2.93   3 2.94
   7  0.833  0.333  0.610-  15 2.10  32 2.11  45 2.11  36 2.11  19 2.11  49 2.11   2 2.93   3 2.93
                             4 2.93  10 2.93   9 2.93  11 2.93
   8  0.834  0.834  0.610-  46 2.10  31 2.10  16 2.10  35 2.10  50 2.11  20 2.12   1 2.93   9 2.93
                             3 2.93  10 2.93  12 2.93   4 2.94
   9  0.000  0.167  0.610-  45 2.10  13 2.11  35 2.11  31 2.11  17 2.11  49 2.11   8 2.93   3 2.93
                             1 2.93   5 2.93   2 2.93   7 2.93
  10  1.000  0.667  0.610-  46 2.10  32 2.11  14 2.11  18 2.11  36 2.11  50 2.11   2 2.93   6 2.93
                             7 2.93   8 2.93   4 2.93   1 2.93
  11  0.500  0.166  0.610-  47 2.10  15 2.11  29 2.11  51 2.11  33 2.11  19 2.11   5 2.93   4 2.93
                             6 2.93   3 2.93   1 2.93   7 2.93
  12  0.500  0.667  0.610-  48 2.10  20 2.10  52 2.10  34 2.10  16 2.10  30 2.10   5 2.93   4 2.93
                             2 2.93   6 2.93   3 2.93   8 2.93
  13  0.167  0.167  0.574-  65 1.76   5 2.10   9 2.11   1 2.11
  14  0.167  0.667  0.574-  66 1.76   6 2.10   2 2.10  10 2.11
  15  0.667  0.167  0.574-  67 1.76   7 2.10   3 2.10  11 2.11
  16  0.667  0.667  0.574-  68 1.76  12 2.10   8 2.10   4 2.11
  17  0.167  0.167  0.646-  61 1.74   5 2.11   9 2.11   1 2.11
  18  0.167  0.667  0.646-  62 1.74   2 2.10   6 2.10  10 2.11
  19  0.667  0.167  0.646-  63 1.74   3 2.11  11 2.11   7 2.11
  20  0.665  0.667  0.646-  64 1.71  12 2.10   8 2.12   4 2.12
  21  0.167  0.000  0.711-  69 1.77  78 1.77  61 1.77
  22  0.166  0.500  0.711-  70 1.75  62 1.78  77 1.78
  23  0.667  0.001  0.711-  80 1.75  71 1.78  63 1.78
  24  0.667  0.500  0.711-  64 1.75  79 1.78  72 1.78
  25  0.166  0.000  0.510-  65 1.76  82 1.76  73 1.77
  26  0.166  0.500  0.510-  66 1.76  81 1.76  74 1.77
  27  0.666  0.000  0.510-  67 1.76  84 1.76  75 1.77
  28  0.666  0.500  0.510-  68 1.76  83 1.76  76 1.77
  29  0.333  1.000  0.574-  73 1.76   1 2.10   6 2.10  11 2.11
  30  0.333  0.500  0.574-  74 1.76  12 2.10   2 2.10   5 2.11
  31  0.833  0.000  0.574-  75 1.76   3 2.10   8 2.10   9 2.11
  32  0.833  0.500  0.574-  76 1.76   4 2.10   7 2.11  10 2.11
  33  0.333  1.000  0.646-  69 1.74   6 2.11  11 2.11   1 2.11
  34  0.335  0.502  0.646-  70 1.71  12 2.10   5 2.12   2 2.12
  35  0.833  0.000  0.646-  71 1.74   8 2.10   3 2.10   9 2.11
  36  0.833  0.500  0.646-  72 1.74  10 2.11   4 2.11   7 2.11
  37  0.333  0.333  0.711-  70 1.75  79 1.78  61 1.78
  38  0.334  0.834  0.711-  80 1.75  62 1.78  69 1.78
  39  0.833  0.333  0.711-  72 1.77  63 1.77  77 1.77
  40  0.834  0.833  0.711-  64 1.75  71 1.78  78 1.78
  41  0.334  0.334  0.510-  83 1.76  74 1.76  65 1.77
  42  0.334  0.834  0.510-  84 1.76  73 1.76  66 1.77
  43  0.834  0.334  0.510-  81 1.76  76 1.76  67 1.77
  44  0.834  0.834  0.510-  82 1.76  75 1.76  68 1.77
  45  0.000  0.333  0.574-  81 1.76   9 2.10   2 2.10   7 2.11
  46  0.000  0.833  0.574-  82 1.76  10 2.10   8 2.10   1 2.11
  47  0.500  0.333  0.574-  83 1.76  11 2.10   4 2.10   5 2.10
  48  0.500  0.833  0.574-  84 1.76  12 2.10   3 2.11   6 2.11
  49  0.000  0.334  0.646-  77 1.74   2 2.11   9 2.11   7 2.11
  50  1.000  0.833  0.646-  78 1.74   8 2.11   1 2.11  10 2.11
  51  0.500  0.333  0.646-  79 1.74   5 2.10   4 2.10  11 2.11
  52  0.500  0.832  0.646-  80 1.71  12 2.10   3 2.12   6 2.12
  53  1.000  0.166  0.711-  71 1.77  61 1.77  77 1.77
  54  0.001  0.667  0.711-  62 1.77  78 1.77  72 1.77
  55  0.500  0.167  0.711-  79 1.77  63 1.77  69 1.77
  56  0.500  0.667  0.712- 125 1.03  64 1.88  80 1.88  70 1.88
  57  0.500  0.166  0.510-  73 1.76  67 1.76  83 1.77
  58  0.500  0.666  0.510-  74 1.76  68 1.76  84 1.77
  59  1.000  0.166  0.510-  75 1.76  65 1.76  81 1.77
  60  1.000  0.666  0.510-  76 1.76  66 1.76  82 1.77
  61  0.166  0.165  0.696-  17 1.74  21 1.77  53 1.77  37 1.78  70 2.87  69 2.91  78 2.92  71 2.92
                            77 2.94  79 2.94
  62  0.166  0.667  0.696-  18 1.74  54 1.77  38 1.78  22 1.78  78 2.92  72 2.92  70 2.93  80 2.94
                            77 2.94  69 2.94
  63  0.667  0.168  0.696-  19 1.74  39 1.77  55 1.77  23 1.78  80 2.87  72 2.91  77 2.92  79 2.92
                            69 2.94  71 2.94
  64  0.676  0.667  0.695-  20 1.71  40 1.75  24 1.75  56 1.88  78 2.87  72 2.87  71 2.94  79 2.94
                            70 3.08  80 3.08
  65  0.167  0.167  0.524-  13 1.76  25 1.76  59 1.76  41 1.77  74 2.92  73 2.92  81 2.92  83 2.92
                            75 2.94  82 2.94
  66  0.167  0.667  0.524-  14 1.76  26 1.76  60 1.76  42 1.77  82 2.92  73 2.92  84 2.92  74 2.92
                            76 2.94  81 2.94
  67  0.667  0.167  0.524-  15 1.76  27 1.76  57 1.76  43 1.77  83 2.92  76 2.92  81 2.92  75 2.92
                            84 2.94  73 2.94
  68  0.667  0.667  0.524-  16 1.76  28 1.76  58 1.76  44 1.77  75 2.92  84 2.92  76 2.92  82 2.92
                            74 2.94  83 2.94
  69  0.333  0.001  0.696-  33 1.74  21 1.77  55 1.77  38 1.78  80 2.87  78 2.91  61 2.91  79 2.92
                            63 2.94  62 2.94
  70  0.325  0.491  0.695-  34 1.71  37 1.75  22 1.75  56 1.88  77 2.87  61 2.87  62 2.93  79 2.94
                            64 3.08  80 3.08
  71  0.834  0.001  0.696-  35 1.74  53 1.77  23 1.78  40 1.78  77 2.92  61 2.92  80 2.93  64 2.94
                            63 2.94  78 2.94
  72  0.835  0.500  0.696-  36 1.74  39 1.77  54 1.77  24 1.78  64 2.87  63 2.91  77 2.91  62 2.92
                            78 2.94  79 2.94
  73  0.333  1.000  0.524-  29 1.76  57 1.76  42 1.76  25 1.77  82 2.92  66 2.92  83 2.92  65 2.92
                            84 2.94  67 2.94
  74  0.333  0.500  0.524-  30 1.76  58 1.76  41 1.76  26 1.77  81 2.92  65 2.92  84 2.92  66 2.92
                            68 2.94  83 2.94
  75  0.833  0.000  0.524-  31 1.76  59 1.76  44 1.76  27 1.77  81 2.92  67 2.92  84 2.92  68 2.92
                            65 2.94  82 2.94
  76  0.833  0.500  0.524-  32 1.76  60 1.76  43 1.76  28 1.77  67 2.92  83 2.92  68 2.92  82 2.92
                            66 2.94  81 2.94
  77  0.999  0.332  0.696-  49 1.74  39 1.77  53 1.77  22 1.78  70 2.87  72 2.91  63 2.92  71 2.92
                            61 2.94  62 2.94
  78  0.002  0.834  0.696-  50 1.74  21 1.77  54 1.77  40 1.78  64 2.87  69 2.91  61 2.92  62 2.92
                            72 2.94  71 2.94
  79  0.500  0.333  0.696-  51 1.74  55 1.77  37 1.78  24 1.78  63 2.92  69 2.92  70 2.94  64 2.94
                            61 2.94  72 2.94
  80  0.500  0.842  0.695-  52 1.71  23 1.75  38 1.75  56 1.88  63 2.87  69 2.87  71 2.93  62 2.94
                            70 3.08  64 3.08
  81  0.000  0.333  0.524-  45 1.76  43 1.76  26 1.76  59 1.77  74 2.92  65 2.92  75 2.92  67 2.92
                            76 2.94  66 2.94
  82  0.000  0.833  0.524-  46 1.76  44 1.76  25 1.76  60 1.77  66 2.92  73 2.92  68 2.92  76 2.92
                            65 2.94  75 2.94
  83  0.500  0.333  0.524-  47 1.76  41 1.76  28 1.76  57 1.77  67 2.92  76 2.92  73 2.92  65 2.92
                            68 2.94  74 2.94
  84  0.500  0.833  0.524-  48 1.76  42 1.76  27 1.76  58 1.77  75 2.92  68 2.92  66 2.92  74 2.92
                            73 2.94  67 2.94
  85  1.000  1.000  0.350- 102 1.87 105 1.87 100 1.87 122 3.33 124 3.33 121 3.33
  86  1.000  0.500  0.350-  99 1.87 106 1.87 101 1.87 123 3.33 121 3.33 122 3.33
  87  0.500  1.000  0.350-  98 1.87 107 1.87 104 1.87 122 3.33 124 3.33 123 3.33
  88  0.500  0.500  0.350-  97 1.87 103 1.87 108 1.87 121 3.33 124 3.33 123 3.33
  89  0.000  1.000  0.441- 110 1.88 113 1.88 120 1.88 122 3.35 121 3.35 124 3.35
  90  1.000  0.500  0.441- 109 1.88 119 1.88 114 1.88 123 3.35 121 3.35 122 3.35
  91  0.500  0.000  0.441- 118 1.88 115 1.88 112 1.88 123 3.35 122 3.35 124 3.35
  92  0.500  0.500  0.441- 111 1.88 117 1.88 116 1.88 121 3.35 123 3.35 124 3.35
  93  0.333  0.167  0.395- 113 2.03 118 2.03 111 2.03  97 2.03 107 2.03 102 2.03 122 2.93 121 2.93
                           123 2.93
  94  0.333  0.667  0.395- 117 2.03 114 2.03 112 2.03  98 2.03 101 2.03 108 2.03 121 2.93 122 2.93
                           124 2.93
  95  0.833  0.167  0.395- 115 2.03 109 2.03 120 2.03 104 2.03  99 2.03 105 2.03 124 2.93 123 2.93
                           121 2.93
  96  0.833  0.667  0.395- 119 2.03 110 2.03 116 2.03 100 2.03 106 2.03 103 2.03 123 2.93 124 2.93
                           122 2.93
  97  0.318  0.325  0.362-  88 1.87 121 1.95  93 2.03
  98  0.318  0.825  0.362-  87 1.87 122 1.95  94 2.03
  99  0.818  0.325  0.362-  86 1.87 123 1.95  95 2.03
 100  0.818  0.825  0.362-  85 1.87 124 1.95  96 2.03
 101  0.175  0.494  0.362-  86 1.87 121 1.95  94 2.03
 102  0.175  0.994  0.362-  85 1.87 122 1.95  93 2.03
 103  0.675  0.494  0.362-  88 1.87 123 1.95  96 2.03
 104  0.675  0.994  0.362-  87 1.87 124 1.95  95 2.03
 105  0.006  0.182  0.362-  85 1.87 121 1.95  95 2.03
 106  0.006  0.682  0.362-  86 1.87 122 1.95  96 2.03
 107  0.506  0.182  0.362-  87 1.87 123 1.95  93 2.03
 108  0.506  0.682  0.362-  88 1.87 124 1.95  94 2.03
 109  0.006  0.325  0.427-  90 1.88 121 1.95  95 2.03
 110  0.006  0.825  0.427-  89 1.88 122 1.95  96 2.03
 111  0.506  0.325  0.427-  92 1.88 123 1.95  93 2.03
 112  0.506  0.825  0.427-  91 1.88 124 1.95  94 2.03
 113  0.175  0.181  0.427-  89 1.88 121 1.95  93 2.03
 114  0.175  0.681  0.427-  90 1.88 122 1.95  94 2.03
 115  0.675  0.181  0.427-  91 1.88 123 1.95  95 2.03
 116  0.675  0.681  0.427-  92 1.88 124 1.95  96 2.03
 117  0.319  0.494  0.427-  92 1.88 121 1.95  94 2.03
 118  0.319  0.994  0.427-  91 1.88 122 1.95  93 2.03
 119  0.819  0.494  0.427-  90 1.88 123 1.95  96 2.03
 120  0.819  0.994  0.427-  89 1.88 124 1.95  95 2.03
 121  0.167  0.333  0.395-  97 1.95 101 1.95 105 1.95 113 1.95 117 1.95 109 1.95  94 2.93  93 2.93
                            95 2.93  88 3.33  86 3.33  85 3.33  92 3.35  90 3.35  89 3.35
 122  0.167  0.833  0.395- 102 1.95  98 1.95 106 1.95 118 1.95 110 1.95 114 1.95  93 2.93  94 2.93
                            96 2.93  87 3.33  85 3.33  86 3.33  89 3.35  91 3.35  90 3.35
 123  0.667  0.333  0.395-  99 1.95 107 1.95 103 1.95 119 1.95 115 1.95 111 1.95  96 2.93  95 2.93
                            93 2.93  86 3.33  87 3.33  88 3.33  90 3.35  92 3.35  91 3.35
 124  0.667  0.833  0.395- 100 1.95 104 1.95 108 1.95 120 1.95 116 1.95 112 1.95  95 2.93  96 2.93
                            94 2.93  85 3.33  87 3.33  88 3.33  92 3.35  89 3.35  91 3.35
 125  0.501  0.667  0.742-  56 1.03
 

IMPORTANT INFORMATION: All symmetrisations will be switched off!
NOSYMM: (Re-)initialisation of all symmetry stuff for point group C_1.


----------------------------------------------------------------------------------------

                                     Primitive cell                                     

  volume of cell :    3117.3503

  direct lattice vectors                    reciprocal lattice vectors
    10.150223000  0.000000000  0.000000000     0.098520003  0.056880289  0.000000087
    -5.075097510  8.790367130  0.000000000     0.000000000  0.113760891  0.000000174
     0.000000000 -0.000053510 34.938400000     0.000000000  0.000000000  0.028621803

  length of vectors
    10.150223000 10.150229998 34.938400000     0.113760970  0.113760891  0.028621803

  position of ions in fractional coordinates (direct lattice)
     0.166673660  0.000045799  0.610061347
     0.166373051  0.500222337  0.609936418
     0.667165713  0.000362107  0.609924037
     0.666500287  0.499551365  0.609925430
     0.333610302  0.333114264  0.609936349
     0.332943611  0.833237411  0.609927919
     0.833434011  0.333413599  0.610061265
     0.833756536  0.833907317  0.609921420
     0.000285069  0.166896524  0.610039755
     0.999823893  0.666652011  0.610035278
     0.500038771  0.166423171  0.610036734
     0.500048564  0.666655424  0.609680890
     0.167169877  0.167121809  0.574215517
     0.166787247  0.667124347  0.574152436
     0.667185006  0.167155599  0.574209784
     0.667153001  0.667127821  0.574119024
     0.167004849  0.166963745  0.646019220
     0.166806904  0.666756188  0.645885727
     0.666788878  0.166557503  0.646011295
     0.665173040  0.666765239  0.645825082
     0.166810372  0.000113801  0.711192936
     0.166469980  0.499720481  0.711141667
     0.666803812  0.000514308  0.711117764
     0.667233551  0.500170990  0.711116907
     0.165762416  0.000112997  0.509571334
     0.165728666  0.500106615  0.509554739
     0.665802288  0.000153246  0.509547460
     0.665777275  0.500062264  0.509550266
     0.332839960  0.999915253  0.574210670
     0.332882978  0.499934737  0.574129467
     0.833264411  0.000315504  0.574148201
     0.832876235  0.499890918  0.574209080
     0.333319087  0.999809334  0.646012014
     0.334994833  0.501681495  0.645855451
     0.833323853  0.000010777  0.645874702
     0.833126950  0.500014111  0.646009393
     0.333102722  0.333095422  0.711140070
     0.333549627  0.833865660  0.711122335
     0.833498123  0.333451448  0.711192101
     0.833881512  0.833432408  0.711113778
     0.334337036  0.334195688  0.509556833
     0.334291030  0.834244927  0.509548297
     0.834351734  0.334237917  0.509572209
     0.834378988  0.834271612  0.509545320
     0.000075367  0.333047091  0.574216695
     0.000110739  0.833057673  0.574208036
     0.500070704  0.332653233  0.574155683
     0.500076797  0.833025493  0.574119783
     0.000276410  0.333579977  0.646019034
     0.999869161  0.833359519  0.646008793
     0.500069235  0.333377771  0.645883232
     0.500080660  0.831739163  0.645830346
     0.999671947  0.166294654  0.711055286
     0.000648103  0.666764859  0.711049434
     0.500138881  0.167265055  0.711050502
     0.500256509  0.666866352  0.712027589
     0.499894041  0.165600980  0.509558844
     0.499889987  0.665664738  0.509516792
     0.999966022  0.165735657  0.509560968
     0.999833555  0.665667669  0.509555466
     0.165696944  0.165366816  0.695934678
     0.166445015  0.666781708  0.695679202
     0.667121484  0.168252430  0.695924142
     0.675541122  0.666817924  0.694588883
     0.167358654  0.167367724  0.523949008
     0.167306125  0.667386698  0.523883178
     0.667378010  0.167397959  0.523942837
     0.667360669  0.667360047  0.523863465
     0.333161515  0.001255398  0.695926982
     0.324853621  0.491475871  0.694630355
     0.833908622  0.000542790  0.695662699
     0.834639603  0.499799155  0.695923663
     0.332602009  0.999983986  0.523944376
     0.332619058  0.499971777  0.523869289
     0.832668758  0.000026425  0.523880433
     0.832636579  0.499965630  0.523942551
     0.998748657  0.332321021  0.695932889
     0.001620502  0.833736122  0.695922766
     0.500154127  0.333051897  0.695674349
     0.500195732  0.842171921  0.694593941
     0.000018068  0.332658649  0.523950434
     0.000032781  0.832667501  0.523940861
     0.500027300  0.332609573  0.523890301
     0.500006445  0.832676415  0.523861534
     0.999994590  0.999991803  0.349572698
     0.999988212  0.499988409  0.349572377
     0.499989341  0.999991689  0.349574675
     0.499983149  0.499994040  0.349572511
     0.000012096  0.999997696  0.441082450
     0.999974823  0.499978542  0.441081736
     0.499992485  0.000015536  0.441082063
     0.499984672  0.499986573  0.441073623
     0.333325335  0.166661841  0.394838904
     0.333319614  0.666658568  0.394839935
     0.833324026  0.166656708  0.394839854
     0.833325839  0.666658500  0.394838566
     0.318432767  0.324535475  0.362159697
     0.318435167  0.824528804  0.362159582
     0.818432752  0.324530178  0.362157571
     0.818432844  0.824534699  0.362160585
     0.175450130  0.493893030  0.362158927
     0.175453190  0.993894650  0.362158063
     0.675441183  0.493893810  0.362158689
     0.675449288  0.993893137  0.362161216
     0.006096071  0.181551909  0.362159427
     0.006093980  0.681548362  0.362159588
     0.506094136  0.181554092  0.362159930
     0.506093992  0.681555697  0.362162193
     0.006266830  0.324792831  0.427140569
     0.006268699  0.824792552  0.427139833
     0.506271320  0.324796811  0.427144128
     0.506270289  0.824804684  0.427146860
     0.175200824  0.181476642  0.427141267
     0.175186675  0.681465175  0.427146211
     0.675199076  0.181477988  0.427141300
     0.675193126  0.681470321  0.427148330
     0.318512615  0.493717559  0.427145378
     0.318511131  0.993714861  0.427141717
     0.818509922  0.493715752  0.427140441
     0.818520923  0.993714487  0.427147904
     0.166665114  0.333332668  0.394617294
     0.166663523  0.833333131  0.394616905
     0.666665802  0.333332608  0.394616986
     0.666667175  0.833333836  0.394617544
     0.500540753  0.667077656  0.741554321

  ion indices of the primitive-cell ions
   primitive index   ion index
                 1           1
                 2           2
                 3           3
                 4           4
                 5           5
                 6           6
                 7           7
                 8           8
                 9           9
                10          10
                11          11
                12          12
                13          13
                14          14
                15          15
                16          16
                17          17
                18          18
                19          19
                20          20
                21          21
                22          22
                23          23
                24          24
                25          25
                26          26
                27          27
                28          28
                29          29
                30          30
                31          31
                32          32
                33          33
                34          34
                35          35
                36          36
                37          37
                38          38
                39          39
                40          40
                41          41
                42          42
                43          43
                44          44
                45          45
                46          46
                47          47
                48          48
                49          49
                50          50
                51          51
                52          52
                53          53
                54          54
                55          55
                56          56
                57          57
                58          58
                59          59
                60          60
                61          61
                62          62
                63          63
                64          64
                65          65
                66          66
                67          67
                68          68
                69          69
                70          70
                71          71
                72          72
                73          73
                74          74
                75          75
                76          76
                77          77
                78          78
                79          79
                80          80
                81          81
                82          82
                83          83
                84          84
                85          85
                86          86
                87          87
                88          88
                89          89
                90          90
                91          91
                92          92
                93          93
                94          94
                95          95
                96          96
                97          97
                98          98
                99          99
               100         100
               101         101
               102         102
               103         103
               104         104
               105         105
               106         106
               107         107
               108         108
               109         109
               110         110
               111         111
               112         112
               113         113
               114         114
               115         115
               116         116
               117         117
               118         118
               119         119
               120         120
               121         121
               122         122
               123         123
               124         124
               125         125

----------------------------------------------------------------------------------------

 
 
 KPOINTS: K-Spacing Value to Generate K-Mesh: 0.50

Automatic generation of k-mesh.
Space group operators:
 irot       det(A)        alpha          n_x          n_y          n_z        tau_x        tau_y        tau_z
    1     1.000000     0.000000     1.000000     0.000000     0.000000     0.000000     0.000000     0.000000
 
 Subroutine IBZKPT returns following result:
 ===========================================
 
 Found      1 irreducible k-points:
 
 Following reciprocal coordinates:
            Coordinates               Weight
  0.000000  0.000000  0.000000      1.000000
 
 Following cartesian coordinates:
            Coordinates               Weight
  0.000000  0.000000  0.000000      1.000000
 
 
 Subroutine IBZKPT_HF returns following result:
 ==============================================
 
 Found      1 k-points in 1st BZ
 the following      1 k-points will be used (e.g. in the exchange kernel)
 Following reciprocal coordinates:   # in IRBZ
  0.000000  0.000000  0.000000    1.00000000   1 t-inv F


--------------------------------------------------------------------------------------------------------




 Dimension of arrays:
   k-points           NKPTS =      1   k-points in BZ     NKDIM =      1   number of bands    NBANDS=    544
   number of dos      NEDOS =    301   number of ions     NIONS =    125
   non local maximal  LDIM  =      6   non local SUM 2l+1 LMDIM =     18
   total plane-waves  NPLWV = ******
   max r-space proj   IRMAX =      1   max aug-charges    IRDMAX= 105507
   dimension x,y,z NGX =    70 NGY =   70 NGZ =  240
   dimension x,y,z NGXF=   120 NGYF=  120 NGZF=  392
   support grid    NGXF=   240 NGYF=  240 NGZF=  784
   ions per type =              12  48  24  12  24   4   1
   NGX,Y,Z   is equivalent  to a cutoff of  11.46, 11.46, 11.42 a.u.
   NGXF,Y,Z  is equivalent  to a cutoff of  19.65, 19.65, 18.65 a.u.

 SYSTEM =  unknown system                          
 POSCAR =  Generated by VASPKIT code               

 Startparameter for this run:
   NWRITE =      2    write-flag & timer
   PREC   = accura    normal or accurate (medium, high low for compatibility)
   ISTART =      0    job   : 0-new  1-cont  2-samecut
   ICHARG =      2    charge: 1-file 2-atom 10-const
   ISPIN  =      2    spin polarized calculation?
   LNONCOLLINEAR =      F non collinear calculations
   LSORBIT =      F    spin-orbit coupling
   INIWAV =      1    electr: 0-lowe 1-rand  2-diag
   LASPH  =      T    aspherical Exc in radial PAW
   METAGGA=      F    non-selfconsistent MetaGGA calc.

 Electronic Relaxation 1
   ENCUT  =  400.0 eV  29.40 Ry    5.42 a.u.  16.55 16.55 56.98*2*pi/ulx,y,z
   ENINI  =  400.0     initial cutoff
   ENAUG  =  627.1 eV  augmentation charge cutoff
   NELM   =    120;   NELMIN=  2; NELMDL= -5     # of ELM steps 
   EDIFF  = 0.1E-04   stopping-criterion for ELM
   LREAL  =      F    real-space projection
   NLSPLINE    = F    spline interpolate recip. space projectors
   LCOMPAT=      F    compatible to vasp.4.4
   GGA_COMPAT  = T    GGA compatible to vasp.4.4-vasp.4.6
   LMAXPAW     = -100 max onsite density
   LMAXMIX     =    2 max onsite mixed and CHGCAR
   VOSKOWN=      0    Vosko Wilk Nusair interpolation
   ROPT   =    0.00000   0.00000   0.00000   0.00000
   ROPT   =    0.00000   0.00000   0.00000
 Ionic relaxation
   EDIFFG = -.2E-01   stopping-criterion for IOM
   NSW    =   1537    number of steps for IOM
   NBLOCK =      1;   KBLOCK =   1537    inner block; outer block 
   IBRION =      5    ionic relax: 0-MD 1-quasi-New 2-CG
   NFREE  =      2    steps in history (QN), initial steepest desc. (CG)
   ISIF   =      2    stress and relaxation
   IWAVPR =     11    prediction:  0-non 1-charg 2-wave 3-comb
   ISYM   =      0    0-nonsym 1-usesym 2-fastsym
   LCORR  =      T    Harris-Foulkes like correction to forces

   POTIM  = 0.0200    time-step for ionic-motion
   TEIN   =    0.0    initial temperature
   TEBEG  =    0.0;   TEEND  =   0.0 temperature during run
   SMASS  =  -3.00    Nose mass-parameter (am)
   estimated Nose-frequenzy (Omega)   =  0.10E-29 period in steps = 0.31E+48 mass=  -0.235E-26a.u.
   SCALEE = 1.0000    scale energy and forces
   NPACO  =    256;   APACO  = 16.0  distance and # of slots for P.C.
   PSTRESS=    0.0 pullay stress

  Mass of Ions in am
   POMASS =  95.94 14.00 28.09 58.69 16.00127.60  1.00
  Ionic Valenz
   ZVAL   =  14.00  5.00  4.00 10.00  6.00  6.00  1.00
  Atomic Wigner-Seitz radii
   RWIGS  =  -1.00 -1.00 -1.00 -1.00 -1.00 -1.00 -1.00
  virtual crystal weights 
   VCA    =   1.00  1.00  1.00  1.00  1.00  1.00  1.00
   NELECT =     793.0000    total number of electrons
   NUPDOWN=      -1.0000    fix difference up-down

 DOS related values:
   EMIN   =  10.00;   EMAX   =-10.00  energy-range for DOS
   EFERMI =   0.00
   ISMEAR =     0;   SIGMA  =   0.05  broadening in eV -4-tet -1-fermi 0-gaus

 Electronic relaxation 2 (details)
   IALGO  =     38    algorithm
   LDIAG  =      T    sub-space diagonalisation (order eigenvalues)
   LSUBROT=      F    optimize rotation matrix (better conditioning)
   TURBO    =      0    0=normal 1=particle mesh
   IRESTART =      0    0=no restart 2=restart with 2 vectors
   NREBOOT  =      0    no. of reboots
   NMIN     =      0    reboot dimension
   EREF     =   0.00    reference energy to select bands
   IMIX   =      4    mixing-type and parameters
     AMIX     =   0.40;   BMIX     =  1.00
     AMIX_MAG =   1.60;   BMIX_MAG =  1.00
     AMIN     =   0.10
     WC   =   100.;   INIMIX=   1;  MIXPRE=   1;  MAXMIX= -45

 Intra band minimization:
   WEIMIN = 0.0010     energy-eigenvalue tresh-hold
   EBREAK =  0.46E-08  absolut break condition
   DEPER  =   0.30     relativ break condition  

   TIME   =   0.40     timestep for ELM

  volume/ion in A,a.u.               =      24.94       168.30
  Fermi-wavevector in a.u.,A,eV,Ry     =   1.037299  1.960211 14.639726  1.075990
  Thomas-Fermi vector in A             =   2.171730
 
 Write flags
   LWAVE        =      T    write WAVECAR
   LDOWNSAMPLE  =      F    k-point downsampling of WAVECAR
   LCHARG       =      T    write CHGCAR
   LVTOT        =      F    write LOCPOT, total local potential
   LVHAR        =      F    write LOCPOT, Hartree potential only
   LELF         =      F    write electronic localiz. function (ELF)
   LORBIT       =      0    0 simple, 1 ext, 2 COOP (PROOUT), +10 PAW based schemes


 Dipole corrections
   LMONO  =      F    monopole corrections only (constant potential shift)
   LDIPOL =      F    correct potential (dipole corrections)
   IDIPOL =      0    1-x, 2-y, 3-z, 4-all directions 
   EPSILON=  1.0000000 bulk dielectric constant

 Exchange correlation treatment:
   GGA     =    --    GGA type
   LEXCH   =     8    internal setting for exchange type
   VOSKOWN=      0    Vosko Wilk Nusair interpolation
   LHFCALC =     F    Hartree Fock is set to
   LHFONE  =     F    Hartree Fock one center treatment
   AEXX    =    0.0000 exact exchange contribution

 Linear response parameters
   LEPSILON=     F    determine dielectric tensor
   LRPA    =     F    only Hartree local field effects (RPA)
   LNABLA  =     F    use nabla operator in PAW spheres
   LVEL    =     F    velocity operator in full k-point grid
   LINTERFAST=   F  fast interpolation
   KINTER  =     0    interpolate to denser k-point grid
   CSHIFT  =0.1000    complex shift for real part using Kramers Kronig
   OMEGAMAX=  -1.0    maximum frequency
   DEG_THRESHOLD= 0.2000000E-02 threshold for treating states as degnerate
   RTIME   =   -0.100 relaxation time in fs
  (WPLASMAI=    0.000 imaginary part of plasma frequency in eV, 0.658/RTIME)
   DFIELD  = 0.0000000 0.0000000 0.0000000 field for delta impulse in time
 
 Orbital magnetization related:
   ORBITALMAG=     F  switch on orbital magnetization
   LCHIMAG   =     F  perturbation theory with respect to B field
   DQ        =  0.001000  dq finite difference perturbation B field
   LLRAUG    =     F  two centre corrections for induced B field



--------------------------------------------------------------------------------------------------------


 finite differences
   using selective dynamics as specified on POSCAR
 charge density and potential will be updated during run
 spin polarized calculation
 Variant of blocked Davidson
 Davidson routine will perform the subspace rotation
 perform sub-space diagonalisation
    after iterative eigenvector-optimisation
 modified Broyden-mixing scheme, WC =      100.0
 initial mixing is a Kerker type mixing with AMIX =  0.4000 and BMIX =      1.0000
 Hartree-type preconditioning will be used
 using additional bands          147
 reciprocal scheme for non local part
 use partial core corrections
 calculate Harris-corrections to forces 
   (improved forces if not selfconsistent)
 use gradient corrections 
 use of overlap-Matrix (Vanderbilt PP)
 Gauss-broadening in eV      SIGMA  =   0.05


--------------------------------------------------------------------------------------------------------


  energy-cutoff  :      400.00
  volume of cell :     3117.35
      direct lattice vectors                 reciprocal lattice vectors
    10.150223000  0.000000000  0.000000000     0.098520003  0.056880289  0.000000087
    -5.075097510  8.790367130  0.000000000     0.000000000  0.113760891  0.000000174
     0.000000000 -0.000053510 34.938400000     0.000000000  0.000000000  0.028621803

  length of vectors
    10.150223000 10.150229998 34.938400000     0.113760970  0.113760891  0.028621803


 
 k-points in units of 2pi/SCALE and weight: K-Spacing Value to Generate K-Mesh: 0.50
   0.00000000  0.00000000  0.00000000       1.000
 
 k-points in reciprocal lattice and weights: K-Spacing Value to Generate K-Mesh: 0.50
   0.00000000  0.00000000  0.00000000       1.000
 
 position of ions in fractional coordinates (direct lattice) 
   0.16667366  0.00004580  0.61006135
   0.16637305  0.50022234  0.60993642
   0.66716571  0.00036211  0.60992404
   0.66650029  0.49955136  0.60992543
   0.33361030  0.33311426  0.60993635
   0.33294361  0.83323741  0.60992792
   0.83343401  0.33341360  0.61006127
   0.83375654  0.83390732  0.60992142
   0.00028507  0.16689652  0.61003976
   0.99982389  0.66665201  0.61003528
   0.50003877  0.16642317  0.61003673
   0.50004856  0.66665542  0.60968089
   0.16716988  0.16712181  0.57421552
   0.16678725  0.66712435  0.57415244
   0.66718501  0.16715560  0.57420978
   0.66715300  0.66712782  0.57411902
   0.16700485  0.16696374  0.64601922
   0.16680690  0.66675619  0.64588573
   0.66678888  0.16655750  0.64601130
   0.66517304  0.66676524  0.64582508
   0.16681037  0.00011380  0.71119294
   0.16646998  0.49972048  0.71114167
   0.66680381  0.00051431  0.71111776
   0.66723355  0.50017099  0.71111691
   0.16576242  0.00011300  0.50957133
   0.16572867  0.50010662  0.50955474
   0.66580229  0.00015325  0.50954746
   0.66577727  0.50006226  0.50955027
   0.33283996  0.99991525  0.57421067
   0.33288298  0.49993474  0.57412947
   0.83326441  0.00031550  0.57414820
   0.83287623  0.49989092  0.57420908
   0.33331909  0.99980933  0.64601201
   0.33499483  0.50168149  0.64585545
   0.83332385  0.00001078  0.64587470
   0.83312695  0.50001411  0.64600939
   0.33310272  0.33309542  0.71114007
   0.33354963  0.83386566  0.71112233
   0.83349812  0.33345145  0.71119210
   0.83388151  0.83343241  0.71111378
   0.33433704  0.33419569  0.50955683
   0.33429103  0.83424493  0.50954830
   0.83435173  0.33423792  0.50957221
   0.83437899  0.83427161  0.50954532
   0.00007537  0.33304709  0.57421669
   0.00011074  0.83305767  0.57420804
   0.50007070  0.33265323  0.57415568
   0.50007680  0.83302549  0.57411978
   0.00027641  0.33357998  0.64601903
   0.99986916  0.83335952  0.64600879
   0.50006924  0.33337777  0.64588323
   0.50008066  0.83173916  0.64583035
   0.99967195  0.16629465  0.71105529
   0.00064810  0.66676486  0.71104943
   0.50013888  0.16726506  0.71105050
   0.50025651  0.66686635  0.71202759
   0.49989404  0.16560098  0.50955884
   0.49988999  0.66566474  0.50951679
   0.99996602  0.16573566  0.50956097
   0.99983356  0.66566767  0.50955547
   0.16569694  0.16536682  0.69593468
   0.16644502  0.66678171  0.69567920
   0.66712148  0.16825243  0.69592414
   0.67554112  0.66681792  0.69458888
   0.16735865  0.16736772  0.52394901
   0.16730612  0.66738670  0.52388318
   0.66737801  0.16739796  0.52394284
   0.66736067  0.66736005  0.52386347
   0.33316152  0.00125540  0.69592698
   0.32485362  0.49147587  0.69463036
   0.83390862  0.00054279  0.69566270
   0.83463960  0.49979916  0.69592366
   0.33260201  0.99998399  0.52394438
   0.33261906  0.49997178  0.52386929
   0.83266876  0.00002642  0.52388043
   0.83263658  0.49996563  0.52394255
   0.99874866  0.33232102  0.69593289
   0.00162050  0.83373612  0.69592277
   0.50015413  0.33305190  0.69567435
   0.50019573  0.84217192  0.69459394
   0.00001807  0.33265865  0.52395043
   0.00003278  0.83266750  0.52394086
   0.50002730  0.33260957  0.52389030
   0.50000644  0.83267642  0.52386153
   0.99999459  0.99999180  0.34957270
   0.99998821  0.49998841  0.34957238
   0.49998934  0.99999169  0.34957467
   0.49998315  0.49999404  0.34957251
   0.00001210  0.99999770  0.44108245
   0.99997482  0.49997854  0.44108174
   0.49999249  0.00001554  0.44108206
   0.49998467  0.49998657  0.44107362
   0.33332534  0.16666184  0.39483890
   0.33331961  0.66665857  0.39483993
   0.83332403  0.16665671  0.39483985
   0.83332584  0.66665850  0.39483857
   0.31843277  0.32453548  0.36215970
   0.31843517  0.82452880  0.36215958
   0.81843275  0.32453018  0.36215757
   0.81843284  0.82453470  0.36216059
   0.17545013  0.49389303  0.36215893
   0.17545319  0.99389465  0.36215806
   0.67544118  0.49389381  0.36215869
   0.67544929  0.99389314  0.36216122
   0.00609607  0.18155191  0.36215943
   0.00609398  0.68154836  0.36215959
   0.50609414  0.18155409  0.36215993
   0.50609399  0.68155570  0.36216219
   0.00626683  0.32479283  0.42714057
   0.00626870  0.82479255  0.42713983
   0.50627132  0.32479681  0.42714413
   0.50627029  0.82480468  0.42714686
   0.17520082  0.18147664  0.42714127
   0.17518667  0.68146518  0.42714621
   0.67519908  0.18147799  0.42714130
   0.67519313  0.68147032  0.42714833
   0.31851261  0.49371756  0.42714538
   0.31851113  0.99371486  0.42714172
   0.81850992  0.49371575  0.42714044
   0.81852092  0.99371449  0.42714790
   0.16666511  0.33333267  0.39461729
   0.16666352  0.83333313  0.39461691
   0.66666580  0.33333261  0.39461699
   0.66666717  0.83333384  0.39461754
   0.50054075  0.66707766  0.74155432
 
 position of ions in cartesian coordinates  (Angst):
   1.69154238  0.00036994 21.31456736
  -0.84995357  4.39710535 21.31020256
   6.77004304  0.00315041 21.30976997
   4.22985466  4.39120726 21.30981863
   1.69563159  2.92816403 21.31020014
  -0.84930921  7.32443011 21.30990561
   6.76743454  2.93079530 21.31456450
   4.23065382  7.33031883 21.30967855
  -0.84412262  1.46704908 21.31381299
   6.76511151  5.86008329 21.31365657
   4.23089121  1.46288813 21.31370742
   1.69226315  5.86011330 21.30127480
   0.84865205  1.46903133 20.06217141
  -1.69279336  5.86423721 20.05996749
   5.92374563  1.46932836 20.06197110
   3.38601299  5.86426775 20.05880011
   0.84777917  1.46763805 22.57087791
  -1.69072539  5.86099712 22.56621388
   5.92276024  1.46406703 22.57060105
   3.36775609  5.86107668 22.56409503
   1.69258493  0.00096230 24.84794326
  -0.84642275  4.39268844 24.84615203
   6.76559722  0.00448291 24.84531687
   4.23415279  4.39664858 24.84528695
   1.68195201  0.00096602 17.80360709
  -0.85590692  4.39609348 17.80302729
   6.75726396  0.00131982 17.80277297
   4.21992305  4.39570362 17.80287102
  -1.69626760  8.78959145 20.06200208
   0.84161892  4.39457916 20.05916499
   8.45621838  0.00274267 20.05981950
   5.91688436  4.39419397 20.06194652
  -1.69086680  8.78865654 22.57062614
   0.85418975  4.40992996 22.56515608
   8.45836824  0.00006017 22.56582870
   5.91880396  4.39527304 22.57053456
   1.69057516  2.92799300 24.84609621
  -0.84634644  7.32994723 24.84547658
   6.76789321  2.93112259 24.84791410
   4.23433256  7.32613879 24.84517761
   1.69751976  2.93767553 17.80310044
  -0.84074585  7.33329192 17.80280222
   6.77256614  2.93804673 17.80363766
   4.23512302  7.33352649 17.80269819
  -1.68948147  2.92757547 20.06221256
  -4.22672490  7.32285206 20.06191005
   3.38758157  2.92411332 20.06008093
   0.84820540  7.32256919 20.05882663
  -1.69014529  2.93225590 22.57087142
   5.91951413  7.32550155 22.57051360
   3.38388956  2.93047844 22.56612671
   0.85477287  7.31125804 22.56427895
   9.30293160  1.46175301 24.84313399
  -3.37731829  5.86106985 24.84292954
   4.22763471  1.47028319 24.84296686
   1.69330336  5.86196196 24.87710471
   4.23359488  1.45566614 17.80317070
   1.69568138  5.85141017 17.80170150
   9.30875350  1.45685000 17.80324493
   6.77020522  5.85143593 17.80305268
   0.84260822  1.45359779 24.31484416
  -1.69452816  5.86121878 24.30591822
   5.91753435  1.47896339 24.31447605
   3.47272704  5.86153719 24.26782422
   0.84932014  1.47119570 18.30594001
  -1.68885810  5.86654606 18.30364003
   5.92447466  1.47146148 18.30572441
   3.38694230  5.86631179 18.30295130
   3.37529241  0.01099817 24.31457526
   0.80304873  4.32021617 24.26927321
   8.46160377  0.00473410 24.30534164
   5.93524865  4.39338083 24.31445929
  -1.69903168  8.79019833 18.30577819
   0.83875210  4.39490744 18.30315475
   8.45163947  0.00020425 18.30354412
   5.91407263  4.39485340 18.30571442
   8.45096000  2.92118654 24.31478165
  -4.21484366  7.32880936 24.31442797
   3.38640507  2.92761122 24.30574868
[...]
 
   2 f  =   28.963190 THz   181.981088 2PiTHz  966.107986 cm-1   119.782167 meV
             X         Y         Z           dx          dy          dz
      1.691542  0.000370 21.314567            0           0           0  
     -0.849954  4.397105 21.310203            0           0           0  
      6.770043  0.003150 21.309770            0           0           0  
      4.229855  4.391207 21.309819            0           0           0  
      1.695632  2.928164 21.310200            0           0           0  
     -0.849309  7.324430 21.309906            0           0           0  
      6.767435  2.930795 21.314565            0           0           0  
      4.230654  7.330319 21.309679            0           0           0  
     -0.844123  1.467049 21.313813            0           0           0  
      6.765112  5.860083 21.313657            0           0           0  
      4.230891  1.462888 21.313707            0           0           0  
      1.692263  5.860113 21.301275            0           0           0  
      0.848652  1.469031 20.062171            0           0           0  
     -1.692793  5.864237 20.059967            0           0           0  
      5.923746  1.469328 20.061971            0           0           0  
      3.386013  5.864268 20.058800            0           0           0  
      0.847779  1.467638 22.570878            0           0           0  
     -1.690725  5.860997 22.566214            0           0           0  
      5.922760  1.464067 22.570601            0           0           0  
      3.367756  5.861077 22.564095            0           0           0  
      1.692585  0.000962 24.847943            0           0           0  
     -0.846423  4.392688 24.846152            0           0           0  
      6.765597  0.004483 24.845317            0           0           0  
      4.234153  4.396649 24.845287            0           0           0  
      1.681952  0.000966 17.803607            0           0           0  
     -0.855907  4.396093 17.803027            0           0           0  
      6.757264  0.001320 17.802773            0           0           0  
      4.219923  4.395704 17.802871            0           0           0  
     -1.696268  8.789591 20.062002            0           0           0  
      0.841619  4.394579 20.059165            0           0           0  
      8.456218  0.002743 20.059819            0           0           0  
      5.916884  4.394194 20.061947            0           0           0  
     -1.690867  8.788657 22.570626            0           0           0  
      0.854190  4.409930 22.565156            0           0           0  
      8.458368  0.000060 22.565829            0           0           0  
      5.918804  4.395273 22.570535            0           0           0  
      1.690575  2.927993 24.846096            0           0           0  
     -0.846346  7.329947 24.845477            0           0           0  
      6.767893  2.931123 24.847914            0           0           0  
      4.234333  7.326139 24.845178            0           0           0  
      1.697520  2.937676 17.803100            0           0           0  
     -0.840746  7.333292 17.802802            0           0           0  
      6.772566  2.938047 17.803638            0           0           0  
      4.235123  7.333526 17.802698            0           0           0  
     -1.689481  2.927575 20.062213            0           0           0  
     -4.226725  7.322852 20.061910            0           0           0  
      3.387582  2.924113 20.060081            0           0           0  
      0.848205  7.322569 20.058827            0           0           0  
     -1.690145  2.932256 22.570871            0           0           0  
      5.919514  7.325502 22.570514            0           0           0  
      3.383890  2.930478 22.566127            0           0           0  
      0.854773  7.311258 22.564279            0           0           0  
      9.302932  1.461753 24.843134            0           0           0  
     -3.377318  5.861070 24.842930            0           0           0  
      4.227635  1.470283 24.842967            0           0           0  
      1.693303  5.861962 24.877105            0           0           0  
      4.233595  1.455666 17.803171            0           0           0  
      1.695681  5.851410 17.801701            0           0           0  
      9.308754  1.456850 17.803245            0           0           0  
      6.770205  5.851436 17.803053            0           0           0  
      0.842608  1.453598 24.314844            0           0           0  
     -1.694528  5.861219 24.305918            0           0           0  
      5.917534  1.478963 24.314476            0           0           0  
      3.472727  5.861537 24.267824            0           0           0  
      0.849320  1.471196 18.305940            0           0           0  
     -1.688858  5.866546 18.303640            0           0           0  
      5.924475  1.471461 18.305724            0           0           0  
      3.386942  5.866312 18.302951            0           0           0  
      3.375292  0.010998 24.314575            0           0           0  
      0.803049  4.320216 24.269273            0           0           0  
      8.461604  0.004734 24.305342            0           0           0  
      5.935249  4.393381 24.314459            0           0           0  
     -1.699032  8.790198 18.305778            0           0           0  
      0.838752  4.394907 18.303155            0           0           0  
      8.451639  0.000204 18.303544            0           0           0  
      5.914073  4.394853 18.305714            0           0           0  
      8.450960  2.921187 24.314782            0           0           0  
     -4.214844  7.328809 24.314428            0           0           0  
      3.386405  2.927611 24.305749            0           0           0  
      0.802994  7.402963 24.268001            0           0           0  
     -1.688092  2.924164 18.305990            0           0           0  
     -4.225536  7.319425 18.305655            0           0           0  
      3.387363  2.923732 18.303889            0           0           0  
      0.849263  7.319503 18.302884            0           0           0  
      5.075112  8.790276 12.213511            0           0           0  
      7.612613  4.395063 12.213500            0           0           0  
     -0.000052  8.790275 12.213580            0           0           0  
      2.537422  4.395112 12.213504            0           0           0  
     -5.074963  8.790323 15.410715            0           0           0  
      7.612528  4.394971 15.410690            0           0           0  
      5.074956  0.000113 15.410702            0           0           0  
      2.537475  4.395042 15.410407            0           0           0  
      2.537501  1.464998 13.795040            0           0           0  
     -0.000089  5.860152 13.795076            0           0           0  
      7.612626  1.464953 13.795073            0           0           0  
      5.075086  5.860152 13.795028            0           0           0  
      1.585114  2.852767 12.653280            0           0           0  
     -0.952376  7.247892 12.653276            0           0           0  
      6.660253  2.852720 12.653206            0           0           0  
      4.122682  7.247943 12.653311            0           0           0  
     -0.725697  4.341482 12.653253            0           0           0  
     -3.263223  8.736679 12.653223            0           0           0  
      4.349319  4.341489 12.653245            0           0           0  
      1.811856  8.736666 12.653333            0           0           0  
     -0.859517  1.595889 12.653271            0           0           0  
     -3.397069  5.991041 12.653277            0           0           0  
      4.215564  1.595908 12.653289            0           0           0  
      1.678005  5.991105 12.653368            0           0           0  
     -1.584746  2.855025 14.923608            0           0           0  
     -4.122274  7.250206 14.923582            0           0           0  
      3.490391  2.855060 14.923732            0           0           0  
      0.952792  7.250313 14.923828            0           0           0  
      0.857316  1.595223 14.923632            0           0           0  
     -1.680318  5.990306 14.923805            0           0           0  
      5.932403  1.595235 14.923634            0           0           0  
      3.394832  5.990351 14.923879            0           0           0  
      0.727309  4.339936 14.923776            0           0           0  
     -1.810241  8.735096 14.923648            0           0           0  
      5.802403  4.339920 14.923604            0           0           0  
      3.264972  8.735092 14.923864            0           0           0  
     -0.000008  2.930095 13.787297            0           0           0  
     -2.537575  7.325283 13.787283            0           0           0  
      5.075111  2.930095 13.787286            0           0           0  
      2.537570  7.325289 13.787306            0           0           0  
      1.695116  5.863818 25.908721     0.880048    0.474880   -0.002295  
 
   3 f  =   28.911036 THz   181.653395 2PiTHz  964.368320 cm-1   119.566476 meV
             X         Y         Z           dx          dy          dz
      1.691542  0.000370 21.314567            0           0           0  
     -0.849954  4.397105 21.310203            0           0           0  
      6.770043  0.003150 21.309770            0           0           0  
      4.229855  4.391207 21.309819            0           0           0  
      1.695632  2.928164 21.310200            0           0           0  
     -0.849309  7.324430 21.309906            0           0           0  
      6.767435  2.930795 21.314565            0           0           0  
      4.230654  7.330319 21.309679            0           0           0  
     -0.844123  1.467049 21.313813            0           0           0  
      6.765112  5.860083 21.313657            0           0           0  
      4.230891  1.462888 21.313707            0           0           0  
      1.692263  5.860113 21.301275            0           0           0  
      0.848652  1.469031 20.062171            0           0           0  
     -1.692793  5.864237 20.059967            0           0           0  
      5.923746  1.469328 20.061971            0           0           0  
      3.386013  5.864268 20.058800            0           0           0  
      0.847779  1.467638 22.570878            0           0           0  
     -1.690725  5.860997 22.566214            0           0           0  
      5.922760  1.464067 22.570601            0           0           0  
      3.367756  5.861077 22.564095            0           0           0  
      1.692585  0.000962 24.847943            0           0           0  
     -0.846423  4.392688 24.846152            0           0           0  
      6.765597  0.004483 24.845317            0           0           0  
      4.234153  4.396649 24.845287            0           0           0  
      1.681952  0.000966 17.803607            0           0           0  
     -0.855907  4.396093 17.803027            0           0           0  
      6.757264  0.001320 17.802773            0           0           0  
      4.219923  4.395704 17.802871            0           0           0  
     -1.696268  8.789591 20.062002            0           0           0  
      0.841619  4.394579 20.059165            0           0           0  
      8.456218  0.002743 20.059819            0           0           0  
      5.916884  4.394194 20.061947            0           0           0  
     -1.690867  8.788657 22.570626            0           0           0  
      0.854190  4.409930 22.565156            0           0           0  
      8.458368  0.000060 22.565829            0           0           0  
      5.918804  4.395273 22.570535            0           0           0  
      1.690575  2.927993 24.846096            0           0           0  
     -0.846346  7.329947 24.845477            0           0           0  
      6.767893  2.931123 24.847914            0           0           0  
      4.234333  7.326139 24.845178            0           0           0  
      1.697520  2.937676 17.803100            0           0           0  
     -0.840746  7.333292 17.802802            0           0           0  
      6.772566  2.938047 17.803638            0           0           0  
      4.235123  7.333526 17.802698            0           0           0  
     -1.689481  2.927575 20.062213            0           0           0  
     -4.226725  7.322852 20.061910            0           0           0  
      3.387582  2.924113 20.060081            0           0           0  
      0.848205  7.322569 20.058827            0           0           0  
     -1.690145  2.932256 22.570871            0           0           0  
      5.919514  7.325502 22.570514            0           0           0  
      3.383890  2.930478 22.566127            0           0           0  
      0.854773  7.311258 22.564279            0           0           0  
      9.302932  1.461753 24.843134            0           0           0  
     -3.377318  5.861070 24.842930            0           0           0  
      4.227635  1.470283 24.842967            0           0           0  
      1.693303  5.861962 24.877105            0           0           0  
      4.233595  1.455666 17.803171            0           0           0  
      1.695681  5.851410 17.801701            0           0           0  
      9.308754  1.456850 17.803245            0           0           0  
      6.770205  5.851436 17.803053            0           0           0  
      0.842608  1.453598 24.314844            0           0           0  
     -1.694528  5.861219 24.305918            0           0           0  
      5.917534  1.478963 24.314476            0           0           0  
      3.472727  5.861537 24.267824            0           0           0  
      0.849320  1.471196 18.305940            0           0           0  
     -1.688858  5.866546 18.303640            0           0           0  
      5.924475  1.471461 18.305724            0           0           0  
      3.386942  5.866312 18.302951            0           0           0  
      3.375292  0.010998 24.314575            0           0           0  
      0.803049  4.320216 24.269273            0           0           0  
      8.461604  0.004734 24.305342            0           0           0  
      5.935249  4.393381 24.314459            0           0           0  
     -1.699032  8.790198 18.305778            0           0           0  
      0.838752  4.394907 18.303155            0           0           0  
      8.451639  0.000204 18.303544            0           0           0  
      5.914073  4.394853 18.305714            0           0           0  
      8.450960  2.921187 24.314782            0           0           0  
     -4.214844  7.328809 24.314428            0           0           0  
      3.386405  2.927611 24.305749            0           0           0  
      0.802994  7.402963 24.268001            0           0           0  
     -1.688092  2.924164 18.305990            0           0           0  
     -4.225536  7.319425 18.305655            0           0           0  
      3.387363  2.923732 18.303889            0           0           0  
      0.849263  7.319503 18.302884            0           0           0  
      5.075112  8.790276 12.213511            0           0           0  
      7.612613  4.395063 12.213500            0           0           0  
     -0.000052  8.790275 12.213580            0           0           0  
      2.537422  4.395112 12.213504            0           0           0  
     -5.074963  8.790323 15.410715            0           0           0  
      7.612528  4.394971 15.410690            0           0           0  
      5.074956  0.000113 15.410702            0           0           0  
      2.537475  4.395042 15.410407            0           0           0  
      2.537501  1.464998 13.795040            0           0           0  
     -0.000089  5.860152 13.795076            0           0           0  
      7.612626  1.464953 13.795073            0           0           0  
      5.075086  5.860152 13.795028            0           0           0  
      1.585114  2.852767 12.653280            0           0           0  
     -0.952376  7.247892 12.653276            0           0           0  
      6.660253  2.852720 12.653206            0           0           0  
      4.122682  7.247943 12.653311            0           0           0  
     -0.725697  4.341482 12.653253            0           0           0  
     -3.263223  8.736679 12.653223            0           0           0  
      4.349319  4.341489 12.653245            0           0           0  
      1.811856  8.736666 12.653333            0           0           0  
     -0.859517  1.595889 12.653271            0           0           0  
     -3.397069  5.991041 12.653277            0           0           0  
      4.215564  1.595908 12.653289            0           0           0  
      1.678005  5.991105 12.653368            0           0           0  
     -1.584746  2.855025 14.923608            0           0           0  
     -4.122274  7.250206 14.923582            0           0           0  
      3.490391  2.855060 14.923732            0           0           0  
      0.952792  7.250313 14.923828            0           0           0  
      0.857316  1.595223 14.923632            0           0           0  
     -1.680318  5.990306 14.923805            0           0           0  
      5.932403  1.595235 14.923634            0           0           0  
      3.394832  5.990351 14.923879            0           0           0  
      0.727309  4.339936 14.923776            0           0           0  
     -1.810241  8.735096 14.923648            0           0           0  
      5.802403  4.339920 14.923604            0           0           0  
      3.264972  8.735092 14.923864            0           0           0  
     -0.000008  2.930095 13.787297            0           0           0  
     -2.537575  7.325283 13.787283            0           0           0  
      5.075111  2.930095 13.787286            0           0           0  
      2.537570  7.325289 13.787306            0           0           0  
      1.695116  5.863818 25.908721     0.474883   -0.880049    0.000782  
 
 Finite differences POTIM=  2.000000000000000E-002
 writing wavefunctions
     LOOP+:  cpu time  286.1773: real time  286.8834
    4ORBIT:  cpu time    0.0000: real time    0.0000

 total amount of memory used by VASP MPI-rank0   148108. kBytes
=======================================================================

   base      :      30000. kBytes
   nonl-proj :      21344. kBytes
   fftplans  :      33567. kBytes
   grid      :      46911. kBytes
   one-center:        497. kBytes
   wavefun   :      15789. kBytes
 
  
  
 General timing and accounting informations for this job:
 ========================================================
  
                  Total CPU time used (sec):     4085.929
                            User time (sec):     4079.357
                          System time (sec):        6.572
                         Elapsed time (sec):     4096.125
  
                   Maximum memory used (kb):      702400.
                   Average memory used (kb):           0.
  
                          Minor page faults:      1675739
                          Major page faults:            0
                 Voluntary context switches:         1705
