<?xml version="1.0" encoding="ISO-8859-1"?>
<modeling>
 <generator>
  <i name="program" type="string">vasp </i>
  <i name="version" type="string">6.1.2  </i>
  <i name="subversion" type="string">22Jul20 (build Aug 13 2020 05:52:35) gamma-only                       parallel </i>
  <i name="platform" type="string">LinuxIFC </i>
  <i name="date" type="string">2025 03 12 </i>
  <i name="time" type="string">16:03:02 </i>
 </generator>
 <incar>
  <i type="int" name="ISTART">     0</i>
  <i type="string" name="PREC"> Accurate      (Accurate strictly avoids</i>
  <i type="string" name="ALGO"> Normal</i>
  <i type="logical" name="ADDGRID"> T  </i>
  <i type="int" name="ISPIN">     2</i>
  <i type="int" name="NELM">   120</i>
  <i type="int" name="IBRION">     5</i>
  <i type="int" name="NFREE">     2</i>
  <i name="EDIFF">      0.00001000</i>
  <i name="EDIFFG">     -0.02000000</i>
  <i type="int" name="NSW">     1</i>
  <i type="int" name="ISYM">     0</i>
  <i name="ENCUT">    400.00000000</i>
  <i type="int" name="NGXF">   120</i>
  <i type="int" name="NGYF">   120</i>
  <i type="int" name="NGZF">   392</i>
  <i name="POTIM">      0.02000000</i>
  <i type="logical" name="LREAL"> F  </i>
  <i type="int" name="ISMEAR">     0</i>
  <i name="SIGMA">      0.05000000</i>
  <i type="logical" name="LWAVE"> T  </i>
  <i type="logical" name="LCHARG"> T  </i>
  <i type="logical" name="LASPH"> T  </i>
  <i type="int" name="KPAR">     1</i>
  <i type="int" name="NCORE">     4</i>
  <i type="string" name="ALGO"> Normal</i>
  <i type="int" name="NELM">   120</i>
  <i name="EDIFF">      0.00001000</i>
  <i type="logical" name="LASPH"> T  </i>
  <i type="int" name="IVDW">    11</i>
  <i type="int" name="ISPIN">     2</i>
 </incar>
 <structure name="primitive_cell" >
  <crystal>
   <varray name="basis" >
    <v>      10.15022300       0.00000000       0.00000000 </v>
    <v>      -5.07509751       8.79036713       0.00000000 </v>
    <v>       0.00000000      -0.00005351      34.93840000 </v>
   </varray>
   <i name="volume">   3117.35032185 </i>
   <varray name="rec_basis" >
    <v>       0.09852000       0.05688029       0.00000009 </v>
    <v>       0.00000000       0.11376089       0.00000017 </v>
    <v>       0.00000000       0.00000000       0.02862180 </v>
   </varray>
  </crystal>
  <varray name="positions" >
   <v>       0.16667366       0.00004580       0.61006135 </v>
   <v>       0.16637305       0.50022234       0.60993642 </v>
   <v>       0.66716571       0.00036211       0.60992404 </v>
   <v>       0.66650029       0.49955136       0.60992543 </v>
   <v>       0.33361030       0.33311426       0.60993635 </v>
   <v>       0.33294361       0.83323741       0.60992792 </v>
   <v>       0.83343401       0.33341360       0.61006127 </v>
   <v>       0.83375654       0.83390732       0.60992142 </v>
   <v>       0.00028507       0.16689652       0.61003976 </v>
   <v>       0.99982389       0.66665201       0.61003528 </v>
   <v>       0.50003877       0.16642317       0.61003673 </v>
   <v>       0.50004856       0.66665542       0.60968089 </v>
   <v>       0.16716988       0.16712181       0.57421552 </v>
   <v>       0.16678725       0.66712435       0.57415244 </v>
   <v>       0.66718501       0.16715560       0.57420978 </v>
   <v>       0.66715300       0.66712782       0.57411902 </v>
   <v>       0.16700485       0.16696374       0.64601922 </v>
   <v>       0.16680690       0.66675619       0.64588573 </v>
   <v>       0.66678888       0.16655750       0.64601130 </v>
   <v>       0.66517304       0.66676524       0.64582508 </v>
   <v>       0.16681037       0.00011380       0.71119294 </v>
   <v>       0.16646998       0.49972048       0.71114167 </v>
   <v>       0.66680381       0.00051431       0.71111776 </v>
   <v>       0.66723355       0.50017099       0.71111691 </v>
   <v>       0.16576242       0.00011300       0.50957133 </v>
   <v>       0.16572867       0.50010662       0.50955474 </v>
   <v>       0.66580229       0.00015325       0.50954746 </v>
   <v>       0.66577727       0.50006226       0.50955027 </v>
   <v>       0.33283996       0.99991525       0.57421067 </v>
   <v>       0.33288298       0.49993474       0.57412947 </v>
   <v>       0.83326441       0.00031550       0.57414820 </v>
   <v>       0.83287623       0.49989092       0.57420908 </v>
   <v>       0.33331909       0.99980933       0.64601201 </v>
   <v>       0.33499483       0.50168149       0.64585545 </v>
   <v>       0.83332385       0.00001078       0.64587470 </v>
   <v>       0.83312695       0.50001411       0.64600939 </v>
   <v>       0.33310272       0.33309542       0.71114007 </v>
   <v>       0.33354963       0.83386566       0.71112233 </v>
   <v>       0.83349812       0.33345145       0.71119210 </v>
   <v>       0.83388151       0.83343241       0.71111378 </v>
   <v>       0.33433704       0.33419569       0.50955683 </v>
   <v>       0.33429103       0.83424493       0.50954830 </v>
   <v>       0.83435173       0.33423792       0.50957221 </v>
   <v>       0.83437899       0.83427161       0.50954532 </v>
   <v>       0.00007537       0.33304709       0.57421669 </v>
   <v>       0.00011074       0.83305767       0.57420804 </v>
   <v>       0.50007070       0.33265323       0.57415568 </v>
   <v>       0.50007680       0.83302549       0.57411978 </v>
   <v>       0.00027641       0.33357998       0.64601903 </v>
   <v>       0.99986916       0.83335952       0.64600879 </v>
   <v>       0.50006924       0.33337777       0.64588323 </v>
   <v>       0.50008066       0.83173916       0.64583035 </v>
   <v>       0.99967195       0.16629465       0.71105529 </v>
   <v>       0.00064810       0.66676486       0.71104943 </v>
   <v>       0.50013888       0.16726506       0.71105050 </v>
   <v>       0.50025651       0.66686635       0.71202759 </v>
   <v>       0.49989404       0.16560098       0.50955884 </v>
   <v>       0.49988999       0.66566474       0.50951679 </v>
   <v>       0.99996602       0.16573566       0.50956097 </v>
   <v>       0.99983356       0.66566767       0.50955547 </v>
   <v>       0.16569694       0.16536682       0.69593468 </v>
   <v>       0.16644502       0.66678171       0.69567920 </v>
   <v>       0.66712148       0.16825243       0.69592414 </v>
   <v>       0.67554112       0.66681792       0.69458888 </v>
   <v>       0.16735865       0.16736772       0.52394901 </v>
   <v>       0.16730612       0.66738670       0.52388318 </v>
   <v>       0.66737801       0.16739796       0.52394284 </v>
   <v>       0.66736067       0.66736005       0.52386347 </v>
   <v>       0.33316152       0.00125540       0.69592698 </v>
   <v>       0.32485362       0.49147587       0.69463036 </v>
   <v>       0.83390862       0.00054279       0.69566270 </v>
   <v>       0.83463960       0.49979916       0.69592366 </v>
   <v>       0.33260201       0.99998399       0.52394438 </v>
   <v>       0.33261906       0.49997178       0.52386929 </v>
   <v>       0.83266876       0.00002642       0.52388043 </v>
   <v>       0.83263658       0.49996563       0.52394255 </v>
   <v>       0.99874866       0.33232102       0.69593289 </v>
   <v>       0.00162050       0.83373612       0.69592277 </v>
   <v>       0.50015413       0.33305190       0.69567435 </v>
   <v>       0.50019573       0.84217192       0.69459394 </v>
   <v>       0.00001807       0.33265865       0.52395043 </v>
   <v>       0.00003278       0.83266750       0.52394086 </v>
   <v>       0.50002730       0.33260957       0.52389030 </v>
   <v>       0.50000644       0.83267642       0.52386153 </v>
   <v>       0.99999459       0.99999180       0.34957270 </v>
   <v>       0.99998821       0.49998841       0.34957238 </v>
   <v>       0.49998934       0.99999169       0.34957467 </v>
   <v>       0.49998315       0.49999404       0.34957251 </v>
   <v>       0.00001210       0.99999770       0.44108245 </v>
   <v>       0.99997482       0.49997854       0.44108174 </v>
   <v>       0.49999249       0.00001554       0.44108206 </v>
   <v>       0.49998467       0.49998657       0.44107362 </v>
   <v>       0.33332534       0.16666184       0.39483890 </v>
   <v>       0.33331961       0.66665857       0.39483993 </v>
   <v>       0.83332403       0.16665671       0.39483985 </v>
   <v>       0.83332584       0.66665850       0.39483857 </v>
   <v>       0.31843277       0.32453548       0.36215970 </v>
   <v>       0.31843517       0.82452880       0.36215958 </v>
   <v>       0.81843275       0.32453018       0.36215757 </v>
   <v>       0.81843284       0.82453470       0.36216059 </v>
   <v>       0.17545013       0.49389303       0.36215893 </v>
   <v>       0.17545319       0.99389465       0.36215806 </v>
   <v>       0.67544118       0.49389381       0.36215869 </v>
   <v>       0.67544929       0.99389314       0.36216122 </v>
   <v>       0.00609607       0.18155191       0.36215943 </v>
   <v>       0.00609398       0.68154836       0.36215959 </v>
   <v>       0.50609414       0.18155409       0.36215993 </v>
   <v>       0.50609399       0.68155570       0.36216219 </v>
   <v>       0.00626683       0.32479283       0.42714057 </v>
   <v>       0.00626870       0.82479255       0.42713983 </v>
   <v>       0.50627132       0.32479681       0.42714413 </v>
   <v>       0.50627029       0.82480468       0.42714686 </v>
   <v>       0.17520082       0.18147664       0.42714127 </v>
   <v>       0.17518667       0.68146518       0.42714621 </v>
   <v>       0.67519908       0.18147799       0.42714130 </v>
   <v>       0.67519313       0.68147032       0.42714833 </v>
   <v>       0.31851261       0.49371756       0.42714538 </v>
   <v>       0.31851113       0.99371486       0.42714172 </v>
   <v>       0.81850992       0.49371575       0.42714044 </v>
   <v>       0.81852092       0.99371449       0.42714790 </v>
   <v>       0.16666511       0.33333267       0.39461729 </v>
   <v>       0.16666352       0.83333313       0.39461691 </v>
   <v>       0.66666580       0.33333261       0.39461699 </v>
   <v>       0.66666717       0.83333384       0.39461754 </v>
   <v>       0.50054075       0.66707766       0.74155432 </v>
  </varray>
 </structure>
 <varray name="primitive_index" >
  <v type="int" >        1 </v>
  <v type="int" >        2 </v>
  <v type="int" >        3 </v>
  <v type="int" >        4 </v>
  <v type="int" >        5 </v>
  <v type="int" >        6 </v>
  <v type="int" >        7 </v>
  <v type="int" >        8 </v>
  <v type="int" >        9 </v>
  <v type="int" >       10 </v>
  <v type="int" >       11 </v>
  <v type="int" >       12 </v>
  <v type="int" >       13 </v>
  <v type="int" >       14 </v>
  <v type="int" >       15 </v>
  <v type="int" >       16 </v>
  <v type="int" >       17 </v>
  <v type="int" >       18 </v>
  <v type="int" >       19 </v>
  <v type="int" >       20 </v>
  <v type="int" >       21 </v>
  <v type="int" >       22 </v>
  <v type="int" >       23 </v>
  <v type="int" >       24 </v>
  <v type="int" >       25 </v>
  <v type="int" >       26 </v>
  <v type="int" >       27 </v>
  <v type="int" >       28 </v>
  <v type="int" >       29 </v>
  <v type="int" >       30 </v>
  <v type="int" >       31 </v>
  <v type="int" >       32 </v>
  <v type="int" >       33 </v>
  <v type="int" >       34 </v>
  <v type="int" >       35 </v>
  <v type="int" >       36 </v>
  <v type="int" >       37 </v>
  <v type="int" >       38 </v>
  <v type="int" >       39 </v>
  <v type="int" >       40 </v>
  <v type="int" >       41 </v>
  <v type="int" >       42 </v>
  <v type="int" >       43 </v>
  <v type="int" >       44 </v>
  <v type="int" >       45 </v>
  <v type="int" >       46 </v>
  <v type="int" >       47 </v>
  <v type="int" >       48 </v>
  <v type="int" >       49 </v>
  <v type="int" >       50 </v>
  <v type="int" >       51 </v>
  <v type="int" >       52 </v>
  <v type="int" >       53 </v>
  <v type="int" >       54 </v>
  <v type="int" >       55 </v>
  <v type="int" >       56 </v>
  <v type="int" >       57 </v>
  <v type="int" >       58 </v>
  <v type="int" >       59 </v>
  <v type="int" >       60 </v>
  <v type="int" >       61 </v>
  <v type="int" >       62 </v>
  <v type="int" >       63 </v>
  <v type="int" >       64 </v>
  <v type="int" >       65 </v>
  <v type="int" >       66 </v>
  <v type="int" >       67 </v>
  <v type="int" >       68 </v>
  <v type="int" >       69 </v>
  <v type="int" >       70 </v>
  <v type="int" >       71 </v>
  <v type="int" >       72 </v>
  <v type="int" >       73 </v>
  <v type="int" >       74 </v>
  <v type="int" >       75 </v>
  <v type="int" >       76 </v>
  <v type="int" >       77 </v>
  <v type="int" >       78 </v>
  <v type="int" >       79 </v>
  <v type="int" >       80 </v>
  <v type="int" >       81 </v>
  <v type="int" >       82 </v>
  <v type="int" >       83 </v>
  <v type="int" >       84 </v>
  <v type="int" >       85 </v>
  <v type="int" >       86 </v>
  <v type="int" >       87 </v>
  <v type="int" >       88 </v>
  <v type="int" >       89 </v>
  <v type="int" >       90 </v>
  <v type="int" >       91 </v>
  <v type="int" >       92 </v>
  <v type="int" >       93 </v>
  <v type="int" >       94 </v>
  <v type="int" >       95 </v>
  <v type="int" >       96 </v>
  <v type="int" >       97 </v>
  <v type="int" >       98 </v>
  <v type="int" >       99 </v>
  <v type="int" >      100 </v>
  <v type="int" >      101 </v>
  <v type="int" >      102 </v>
  <v type="int" >      103 </v>
  <v type="int" >      104 </v>
  <v type="int" >      105 </v>
  <v type="int" >      106 </v>
  <v type="int" >      107 </v>
  <v type="int" >      108 </v>
  <v type="int" >      109 </v>
  <v type="int" >      110 </v>
  <v type="int" >      111 </v>
  <v type="int" >      112 </v>
  <v type="int" >      113 </v>
  <v type="int" >      114 </v>
  <v type="int" >      115 </v>
  <v type="int" >      116 </v>
  <v type="int" >      117 </v>
  <v type="int" >      118 </v>
  <v type="int" >      119 </v>
  <v type="int" >      120 </v>
  <v type="int" >      121 </v>
  <v type="int" >      122 </v>
  <v type="int" >      123 </v>
  <v type="int" >      124 </v>
  <v type="int" >      125 </v>
 </varray>
 <kpoints>
  <generation param="Gamma">
   <v type="int" name="divisions">       1        1        1 </v>
   <v name="usershift">      0.00000000       0.00000000       0.00000000 </v>
   <v name="genvec1">      1.00000000       0.00000000      -0.00000000 </v>
   <v name="genvec2">      0.00000000       1.00000000       0.00000000 </v>
   <v name="genvec3">      0.00000000       0.00000000       1.00000000 </v>
   <v name="shift">      0.00000000       0.00000000       0.00000000 </v>
  </generation>
  <varray name="kpointlist" >
   <v>       0.00000000       0.00000000       0.00000000 </v>
  </varray>
  <varray name="weights" >
   <v>       1.00000000 </v>
  </varray>
 </kpoints>
 <parameters>
  <separator name="general" >
   <i type="string" name="SYSTEM">unknown system</i>
   <i type="logical" name="LCOMPAT"> F  </i>
  </separator>
  <separator name="electronic" >
   <i type="string" name="PREC">accura</i>
   <i name="ENMAX">    400.00000000</i>
   <i name="ENAUG">    627.11200000</i>
   <i name="EDIFF">      0.00001000</i>
   <i type="int" name="IALGO">    38</i>
   <i type="int" name="IWAVPR">    11</i>
   <i type="int" name="NBANDS">   544</i>
   <i type="int" name="NBANDSLOW">    -1</i>
   <i type="int" name="NBANDSHIGH">    -1</i>
   <i name="NELECT">    793.00000000</i>
   <i type="int" name="TURBO">     0</i>
   <i type="int" name="IRESTART">     0</i>
   <i type="int" name="NREBOOT">     0</i>
   <i type="int" name="NMIN">     0</i>
   <i name="EREF">      0.00000000</i>
   <separator name="electronic smearing" >
    <i type="int" name="ISMEAR">     0</i>
    <i name="SIGMA">      0.05000000</i>
    <i name="KSPACING">      0.50000000</i>
    <i type="logical" name="KGAMMA"> T  </i>
    <i type="logical" name="KBLOWUP"> T  </i>
   </separator>
   <separator name="electronic projectors" >
    <i type="logical" name="LREAL"> F  </i>
    <v name="ROPT">      0.00000000      0.00000000      0.00000000      0.00000000      0.00000000      0.00000000      0.00000000</v>
    <i type="int" name="LMAXPAW">  -100</i>
    <i type="int" name="LMAXMIX">     2</i>
    <i type="logical" name="NLSPLINE"> F  </i>
   </separator>
   <separator name="electronic startup" >
    <i type="int" name="ISTART">     0</i>
    <i type="int" name="ICHARG">     2</i>
    <i type="int" name="INIWAV">     1</i>
   </separator>
   <separator name="electronic spin" >
    <i type="int" name="ISPIN">     2</i>
    <i type="logical" name="LNONCOLLINEAR"> F  </i>
    <v name="MAGMOM">      1.00000000      1.00000000      1.00000000      1.00000000      1.00000000      1.00000000      1.00000000      1.00000000      1.00000000      1.00000000      1.00000000      1.00000000      1.00000000      1.00000000      1.00000000      1.00000000      1.00000000      1.00000000      1.00000000      1.00000000
      1.00000000      1.00000000      1.00000000      1.00000000      1.00000000      1.00000000      1.00000000      1.00000000      1.00000000      1.00000000      1.00000000      1.00000000      1.00000000      1.00000000      1.00000000      1.00000000      1.00000000      1.00000000      1.00000000      1.00000000
      1.00000000      1.00000000      1.00000000      1.00000000      1.00000000      1.00000000      1.00000000      1.00000000      1.00000000      1.00000000      1.00000000      1.00000000      1.00000000      1.00000000      1.00000000      1.00000000      1.00000000      1.00000000      1.00000000      1.00000000
      1.00000000      1.00000000      1.00000000      1.00000000      1.00000000      1.00000000      1.00000000      1.00000000      1.00000000      1.00000000      1.00000000      1.00000000      1.00000000      1.00000000      1.00000000      1.00000000      1.00000000      1.00000000      1.00000000      1.00000000
      1.00000000      1.00000000      1.00000000      1.00000000      1.00000000      1.00000000      1.00000000      1.00000000      1.00000000      1.00000000      1.00000000      1.00000000      1.00000000      1.00000000      1.00000000      1.00000000      1.00000000      1.00000000      1.00000000      1.00000000
      1.00000000      1.00000000      1.00000000      1.00000000      1.00000000      1.00000000      1.00000000      1.00000000      1.00000000      1.00000000      1.00000000      1.00000000      1.00000000      1.00000000      1.00000000      1.00000000      1.00000000      1.00000000      1.00000000      1.00000000
      1.00000000      1.00000000      1.00000000      1.00000000      1.00000000</v>
    <i name="NUPDOWN">     -1.00000000</i>
    <i type="logical" name="LSORBIT"> F  </i>
    <v name="SAXIS">      0.00000000      0.00000000      1.00000000</v>
    <i type="logical" name="LSPIRAL"> F  </i>
    <v name="QSPIRAL">      0.00000000      0.00000000      0.00000000</v>
    <i type="logical" name="LZEROZ"> F  </i>
   </separator>
   <separator name="electronic exchange-correlation" >
    <i type="logical" name="LASPH"> T  </i>
    <i type="logical" name="LMETAGGA"> F  </i>
   </separator>
   <separator name="electronic convergence" >
    <i type="int" name="NELM">   120</i>
    <i type="int" name="NELMDL">    -5</i>
    <i type="int" name="NELMIN">     2</i>
    <i name="ENINI">    400.00000000</i>
    <separator name="electronic convergence detail" >
     <i type="logical" name="LDIAG"> T  </i>
     <i type="logical" name="LSUBROT"> F  </i>
     <i name="WEIMIN">      0.00100000</i>
     <i name="EBREAK">      0.00000000</i>
     <i name="DEPER">      0.30000000</i>
     <i type="int" name="NRMM">     4</i>
     <i name="TIME">      0.40000000</i>
    </separator>
   </separator>
   <separator name="electronic mixer" >
    <i name="AMIX">      0.40000000</i>
    <i name="BMIX">      1.00000000</i>
    <i name="AMIN">      0.10000000</i>
    <i name="AMIX_MAG">      1.60000000</i>
    <i name="BMIX_MAG">      1.00000000</i>
    <separator name="electronic mixer details" >
     <i type="int" name="IMIX">     4</i>
     <i type="logical" name="MIXFIRST"> F  </i>
     <i type="int" name="MAXMIX">   -45</i>
     <i name="WC">    100.00000000</i>
     <i type="int" name="INIMIX">     1</i>
     <i type="int" name="MIXPRE">     1</i>
     <i type="int" name="MREMOVE">     5</i>
    </separator>
   </separator>
   <separator name="electronic dipolcorrection" >
    <i type="logical" name="LDIPOL"> F  </i>
    <i type="logical" name="LMONO"> F  </i>
    <i type="int" name="IDIPOL">     0</i>
    <i name="EPSILON">      1.00000000</i>
    <v name="DIPOL">   -100.00000000   -100.00000000   -100.00000000</v>
    <i name="EFIELD">      0.00000000</i>
   </separator>
  </separator>
  <separator name="grids" >
   <i type="int" name="NGX">    70</i>
   <i type="int" name="NGY">    70</i>
   <i type="int" name="NGZ">   240</i>
   <i type="int" name="NGXF">   120</i>
   <i type="int" name="NGYF">   120</i>
   <i type="int" name="NGZF">   392</i>
   <i type="logical" name="ADDGRID"> T  </i>
  </separator>
  <separator name="ionic" >
   <i type="int" name="NSW">  1537</i>
   <i type="int" name="IBRION">     5</i>
   <i type="int" name="MDALGO">     0</i>
   <i type="int" name="ISIF">     2</i>
   <i name="PSTRESS">      0.00000000</i>
   <i name="EDIFFG">     -0.02000000</i>
   <i type="int" name="NFREE">     2</i>
   <i name="POTIM">      0.02000000</i>
   <i name="SMASS">     -3.00000000</i>
   <i name="SCALEE">      1.00000000</i>
  </separator>
  <separator name="ionic md" >
   <i name="TEBEG">      0.00010000</i>
   <i name="TEEND">      0.00010000</i>
   <i type="int" name="NBLOCK">     1</i>
   <i type="int" name="KBLOCK">  1537</i>
   <i type="int" name="NPACO">   256</i>
   <i name="APACO">     16.00000000</i>
  </separator>
  <separator name="symmetry" >
   <i type="int" name="ISYM">     0</i>
   <i name="SYMPREC">      0.00001000</i>
  </separator>
  <separator name="dos" >
   <i type="int" name="LORBIT">     0</i>
   <v name="RWIGS">     -1.00000000     -1.00000000     -1.00000000     -1.00000000     -1.00000000     -1.00000000     -1.00000000</v>
   <i type="int" name="NEDOS">   301</i>
   <i name="EMIN">     10.00000000</i>
   <i name="EMAX">    -10.00000000</i>
   <i name="EFERMI">      0.00000000</i>
  </separator>
  <separator name="writing" >
   <i type="int" name="NWRITE">     2</i>
   <i type="logical" name="LWAVE"> T  </i>
   <i type="logical" name="LDOWNSAMPLE"> F  </i>
   <i type="logical" name="LCHARG"> T  </i>
   <i type="logical" name="LPARD"> F  </i>
   <i type="logical" name="LVTOT"> F  </i>
   <i type="logical" name="LVHAR"> F  </i>
   <i type="logical" name="LELF"> F  </i>
   <i type="logical" name="LOPTICS"> F  </i>
   <v name="STM">      0.00000000      0.00000000      0.00000000      0.00000000      0.00000000      0.00000000      0.00000000</v>
  </separator>
  <separator name="performance" >
   <i type="int" name="NPAR">     8</i>
   <i type="int" name="NSIM">     4</i>
   <i type="int" name="NBLK">    -1</i>
   <i type="logical" name="LPLANE"> T  </i>
   <i type="logical" name="LSCALAPACK"> T  </i>
   <i type="logical" name="LSCAAWARE"> F  </i>
   <i type="logical" name="LSCALU"> F  </i>
   <i type="logical" name="LASYNC"> F  </i>
   <i type="logical" name="LORBITALREAL"> F  </i>
  </separator>
  <separator name="miscellaneous" >
   <i type="int" name="IDIOT">     3</i>
   <i type="int" name="PHON_NSTRUCT">    -1</i>
   <i type="logical" name="LMUSIC"> F  </i>
   <v name="POMASS">     95.94000000     14.00100000     28.08500000     58.69000000     16.00000000    127.60000000      1.00000000</v>
   <v name="DARWINR">      0.00000000      0.00000000      0.00000000      0.00000000      0.00000000      0.00000000      0.00000000</v>
   <v name="DARWINV">      1.00000000      1.00000000      1.00000000      1.00000000      1.00000000      1.00000000      1.00000000</v>
   <i type="logical" name="LCORR"> T  </i>
  </separator>
  <i type="logical" name="GGA_COMPAT"> T  </i>
  <i type="logical" name="LBERRY"> F  </i>
  <i type="int" name="ICORELEVEL">     0</i>
  <i type="logical" name="LDAU"> F  </i>
  <i type="int" name="I_CONSTRAINED_M">     0</i>
  <separator name="electronic exchange-correlation" >
   <i type="string" name="GGA">--</i>
   <i type="int" name="VOSKOWN">     0</i>
   <i type="logical" name="LHFCALC"> F  </i>
   <i type="string" name="PRECFOCK"></i>
   <i type="logical" name="LSYMGRAD"> F  </i>
   <i type="logical" name="LHFONE"> F  </i>
   <i type="logical" name="LRHFCALC"> F  </i>
   <i type="logical" name="LTHOMAS"> F  </i>
   <i type="logical" name="LMODELHF"> F  </i>
   <i type="logical" name="LFOCKACE"> F  </i>
   <i name="ENCUT4O">     -1.00000000</i>
   <i type="int" name="EXXOEP">     0</i>
   <i type="int" name="FOURORBIT">     0</i>
   <i name="AEXX">      0.00000000</i>
   <i name="HFALPHA">      0.00000000</i>
   <i name="MCALPHA">      0.00000000</i>
   <i name="ALDAX">      1.00000000</i>
   <i name="AGGAX">      1.00000000</i>
   <i name="ALDAC">      1.00000000</i>
   <i name="AGGAC">      1.00000000</i>
   <i type="int" name="NKREDX">     1</i>
   <i type="int" name="NKREDY">     1</i>
   <i type="int" name="NKREDZ">     1</i>
   <i type="logical" name="SHIFTRED"> F  </i>
   <i type="logical" name="ODDONLY"> F  </i>
   <i type="logical" name="EVENONLY"> F  </i>
   <i type="int" name="LMAXFOCK">     0</i>
   <i type="int" name="NMAXFOCKAE">     0</i>
   <i type="logical" name="LFOCKAEDFT"> F  </i>
   <i name="HFSCREEN">      0.00000000</i>
   <i name="HFSCREENC">      0.00000000</i>
   <i type="int" name="NBANDSGWLOW">     0</i>
  </separator>
  <separator name="vdW DFT" >
   <i type="logical" name="LUSE_VDW"> F  </i>
   <i name="Zab_VDW">     -0.84910000</i>
   <i name="PARAM1">      0.12340000</i>
   <i name="PARAM2">      1.00000000</i>
   <i name="PARAM3">      0.00000000</i>
  </separator>
  <separator name="model GW" >
   <i type="int" name="MODEL_GW">     0</i>
   <i name="MODEL_EPS0">     14.96328154</i>
   <i name="MODEL_ALPHA">      1.00000000</i>
  </separator>
  <separator name="linear response parameters" >
   <i type="logical" name="LEPSILON"> F  </i>
   <i type="logical" name="LRPA"> F  </i>
   <i type="logical" name="LNABLA"> F  </i>
   <i type="logical" name="LVEL"> F  </i>
   <i type="int" name="KINTER">     0</i>
   <i name="CSHIFT">      0.10000000</i>
   <i name="OMEGAMAX">     -1.00000000</i>
   <i name="DEG_THRESHOLD">      0.00200000</i>
   <i name="RTIME">     -0.10000000</i>
   <i name="WPLASMAI">      0.00000000</i>
   <v name="DFIELD">      0.00000000      0.00000000      0.00000000</v>
   <v name="WPLASMA">      0.00000000      0.00000000      0.00000000      0.00000000      0.00000000      0.00000000      0.00000000      0.00000000      0.00000000</v>
  </separator>
  <separator name="orbital magnetization" >
   <i type="logical" name="NUCIND"> F  </i>
   <v name="MAGPOS">      0.00000000      0.00000000      0.00000000</v>
   <i type="logical" name="LNICSALL"> T  </i>
   <i type="logical" name="ORBITALMAG"> F  </i>
   <i type="logical" name="LMAGBLOCH"> F  </i>
   <i type="logical" name="LCHIMAG"> F  </i>
   <i type="logical" name="LGAUGE"> T  </i>
   <i type="int" name="MAGATOM">     0</i>
   <v name="MAGDIPOL">      0.00000000      0.00000000      0.00000000</v>
   <v name="AVECCONST">      0.00000000      0.00000000      0.00000000</v>
  </separator>
  <separator name="response functions" >
   <i type="logical" name="LFINITE_TEMPERATURE"> F  </i>
   <i type="logical" name="LADDER"> F  </i>
   <i type="logical" name="LRPAFORCE"> F  </i>
   <i type="logical" name="LFXC"> F  </i>
   <i type="logical" name="LHARTREE"> T  </i>
   <i type="int" name="IBSE">     0</i>
   <v type="int" name="KPOINT">    -1     0     0     0</v>
   <i type="logical" name="LTCTC"> F  </i>
   <i type="logical" name="LTCTE"> F  </i>
   <i type="logical" name="LTETE"> F  </i>
   <i type="logical" name="LTRIPLET"> F  </i>
   <i type="logical" name="LFXCEPS"> F  </i>
   <i type="logical" name="LFXHEG"> F  </i>
   <i type="int" name="NATURALO">     2</i>
   <i type="logical" name="LHOLEGF"> F  </i>
   <i type="logical" name="L2ORDER"> F  </i>
   <i type="logical" name="LDMP1"> F  </i>
   <i type="logical" name="LMP2LT"> F  </i>
   <i type="logical" name="LSMP2LT"> F  </i>
   <i type="logical" name="LGWLF"> F  </i>
   <i name="ENCUTGW">     -2.00000000</i>
   <i name="ENCUTGWSOFT">     -2.00000000</i>
   <i name="ENCUTLF">     -1.00000000</i>
   <i type="logical" name="LESF_SPLINES"> F  </i>
   <i type="int" name="LMAXMP2">    -1</i>
   <i name="SCISSOR">      0.00000000</i>
   <i type="int" name="NOMEGA">     0</i>
   <i type="int" name="NOMEGAR">     0</i>
   <i type="int" name="NBANDSGW">    -1</i>
   <i type="int" name="NBANDSO">    -1</i>
   <i type="int" name="NBANDSV">    -1</i>
   <i type="int" name="NELM">   120</i>
   <i type="int" name="NELMHF">     1</i>
   <i type="int" name="DIM">     3</i>
   <i type="int" name="IESPILON">     4</i>
   <i type="int" name="ANTIRES">     0</i>
   <i name="OMEGAMAX">    -30.00000000</i>
   <i name="OMEGAMIN">    -30.00000000</i>
   <i name="OMEGATL">   -200.00000000</i>
   <i type="int" name="OMEGAGRID">     0</i>
   <i name="CSHIFT">     -0.10000000</i>
   <i type="logical" name="LSELFENERGY"> F  </i>
   <i type="logical" name="LSPECTRAL"> F  </i>
   <i type="logical" name="LSPECTRALGW"> F  </i>
   <i type="logical" name="LSINGLES"> F  </i>
   <i type="logical" name="LFERMIGW"> F  </i>
   <i type="logical" name="ODDONLYGW"> F  </i>
   <i type="logical" name="EVENONLYGW"> F  </i>
   <i type="int" name="NKREDLFX">     1</i>
   <i type="int" name="NKREDLFY">     1</i>
   <i type="int" name="NKREDLFZ">     1</i>
   <i type="int" name="MAXMEM">  2800</i>
   <i type="int" name="TELESCOPE">     0</i>
   <i type="int" name="NTAUPAR">    -1</i>
   <i type="int" name="NOMEGAPAR">    -1</i>
   <i name="LAMBDA">      1.00000000</i>
  </separator>
  <separator name="External order field" >
   <i name="OFIELD_KAPPA">      0.00000000</i>
   <v name="OFIELD_K">      0.00000000      0.00000000      0.00000000</v>
   <i name="OFIELD_Q6_NEAR">      0.00000000</i>
   <i name="OFIELD_Q6_FAR">      0.00000000</i>
   <i name="OFIELD_A">      0.00000000</i>
  </separator>
 </parameters>
 <atominfo>
  <atoms>     125 </atoms>
  <types>       7 </types>
  <array name="atoms" >
   <dimension dim="1">ion</dimension>
   <field type="string">element</field>
   <field type="int">atomtype</field>
   <set>
    <rc><c>Mo</c><c>   1</c></rc>
    <rc><c>Mo</c><c>   1</c></rc>
    <rc><c>Mo</c><c>   1</c></rc>
    <rc><c>Mo</c><c>   1</c></rc>
    <rc><c>Mo</c><c>   1</c></rc>
    <rc><c>Mo</c><c>   1</c></rc>
    <rc><c>Mo</c><c>   1</c></rc>
    <rc><c>Mo</c><c>   1</c></rc>
    <rc><c>Mo</c><c>   1</c></rc>
    <rc><c>Mo</c><c>   1</c></rc>
    <rc><c>Mo</c><c>   1</c></rc>
    <rc><c>Mo</c><c>   1</c></rc>
    <rc><c>N </c><c>   2</c></rc>
    <rc><c>N </c><c>   2</c></rc>
    <rc><c>N </c><c>   2</c></rc>
    <rc><c>N </c><c>   2</c></rc>
    <rc><c>N </c><c>   2</c></rc>
    <rc><c>N </c><c>   2</c></rc>
    <rc><c>N </c><c>   2</c></rc>
    <rc><c>N </c><c>   2</c></rc>
    <rc><c>N </c><c>   2</c></rc>
    <rc><c>N </c><c>   2</c></rc>
    <rc><c>N </c><c>   2</c></rc>
    <rc><c>N </c><c>   2</c></rc>
    <rc><c>N </c><c>   2</c></rc>
    <rc><c>N </c><c>   2</c></rc>
    <rc><c>N </c><c>   2</c></rc>
    <rc><c>N </c><c>   2</c></rc>
    <rc><c>N </c><c>   2</c></rc>
    <rc><c>N </c><c>   2</c></rc>
    <rc><c>N </c><c>   2</c></rc>
    <rc><c>N </c><c>   2</c></rc>
    <rc><c>N </c><c>   2</c></rc>
    <rc><c>N </c><c>   2</c></rc>
    <rc><c>N </c><c>   2</c></rc>
    <rc><c>N </c><c>   2</c></rc>
    <rc><c>N </c><c>   2</c></rc>
    <rc><c>N </c><c>   2</c></rc>
    <rc><c>N </c><c>   2</c></rc>
    <rc><c>N </c><c>   2</c></rc>
    <rc><c>N </c><c>   2</c></rc>
    <rc><c>N </c><c>   2</c></rc>
    <rc><c>N </c><c>   2</c></rc>
    <rc><c>N </c><c>   2</c></rc>
    <rc><c>N </c><c>   2</c></rc>
    <rc><c>N </c><c>   2</c></rc>
    <rc><c>N </c><c>   2</c></rc>
    <rc><c>N </c><c>   2</c></rc>
    <rc><c>N </c><c>   2</c></rc>
    <rc><c>N </c><c>   2</c></rc>
    <rc><c>N </c><c>   2</c></rc>
    <rc><c>N </c><c>   2</c></rc>
    <rc><c>N </c><c>   2</c></rc>
    <rc><c>N </c><c>   2</c></rc>
    <rc><c>N </c><c>   2</c></rc>
    <rc><c>N </c><c>   2</c></rc>
    <rc><c>N </c><c>   2</c></rc>
    <rc><c>N </c><c>   2</c></rc>
    <rc><c>N </c><c>   2</c></rc>
    <rc><c>N </c><c>   2</c></rc>
    <rc><c>Si</c><c>   3</c></rc>
    <rc><c>Si</c><c>   3</c></rc>
    <rc><c>Si</c><c>   3</c></rc>
    <rc><c>Si</c><c>   3</c></rc>
    <rc><c>Si</c><c>   3</c></rc>
    <rc><c>Si</c><c>   3</c></rc>
    <rc><c>Si</c><c>   3</c></rc>
    <rc><c>Si</c><c>   3</c></rc>
    <rc><c>Si</c><c>   3</c></rc>
    <rc><c>Si</c><c>   3</c></rc>
    <rc><c>Si</c><c>   3</c></rc>
    <rc><c>Si</c><c>   3</c></rc>
    <rc><c>Si</c><c>   3</c></rc>
    <rc><c>Si</c><c>   3</c></rc>
    <rc><c>Si</c><c>   3</c></rc>
    <rc><c>Si</c><c>   3</c></rc>
    <rc><c>Si</c><c>   3</c></rc>
    <rc><c>Si</c><c>   3</c></rc>
    <rc><c>Si</c><c>   3</c></rc>
    <rc><c>Si</c><c>   3</c></rc>
    <rc><c>Si</c><c>   3</c></rc>
    <rc><c>Si</c><c>   3</c></rc>
    <rc><c>Si</c><c>   3</c></rc>
    <rc><c>Si</c><c>   3</c></rc>
    <rc><c>Ni</c><c>   4</c></rc>
    <rc><c>Ni</c><c>   4</c></rc>
    <rc><c>Ni</c><c>   4</c></rc>
    <rc><c>Ni</c><c>   4</c></rc>
    <rc><c>Ni</c><c>   4</c></rc>
    <rc><c>Ni</c><c>   4</c></rc>
    <rc><c>Ni</c><c>   4</c></rc>
    <rc><c>Ni</c><c>   4</c></rc>
    <rc><c>Ni</c><c>   4</c></rc>
    <rc><c>Ni</c><c>   4</c></rc>
    <rc><c>Ni</c><c>   4</c></rc>
    <rc><c>Ni</c><c>   4</c></rc>
    <rc><c>O </c><c>   5</c></rc>
    <rc><c>O </c><c>   5</c></rc>
    <rc><c>O </c><c>   5</c></rc>
    <rc><c>O </c><c>   5</c></rc>
    <rc><c>O </c><c>   5</c></rc>
    <rc><c>O </c><c>   5</c></rc>
    <rc><c>O </c><c>   5</c></rc>
    <rc><c>O </c><c>   5</c></rc>
    <rc><c>O </c><c>   5</c></rc>
    <rc><c>O </c><c>   5</c></rc>
    <rc><c>O </c><c>   5</c></rc>
    <rc><c>O </c><c>   5</c></rc>
    <rc><c>O </c><c>   5</c></rc>
    <rc><c>O </c><c>   5</c></rc>
    <rc><c>O </c><c>   5</c></rc>
    <rc><c>O </c><c>   5</c></rc>
    <rc><c>O </c><c>   5</c></rc>
    <rc><c>O </c><c>   5</c></rc>
    <rc><c>O </c><c>   5</c></rc>
    <rc><c>O </c><c>   5</c></rc>
    <rc><c>O </c><c>   5</c></rc>
    <rc><c>O </c><c>   5</c></rc>
    <rc><c>O </c><c>   5</c></rc>
    <rc><c>O </c><c>   5</c></rc>
    <rc><c>Te</c><c>   6</c></rc>
    <rc><c>Te</c><c>   6</c></rc>
    <rc><c>Te</c><c>   6</c></rc>
    <rc><c>Te</c><c>   6</c></rc>
    <rc><c>H </c><c>   7</c></rc>
   </set>
  </array>
  <array name="atomtypes" >
   <dimension dim="1">type</dimension>
   <field type="int">atomspertype</field>
   <field type="string">element</field>
   <field>mass</field>
   <field>valence</field>
   <field type="string">pseudopotential</field>
   <set>
    <rc><c>  12</c><c>Mo</c><c>     95.94000000</c><c>     14.00000000</c><c>  PAW_PBE Mo_sv 02Feb2006               </c></rc>
    <rc><c>  48</c><c>N </c><c>     14.00100000</c><c>      5.00000000</c><c>  PAW_PBE N 08Apr2002                   </c></rc>
    <rc><c>  24</c><c>Si</c><c>     28.08500000</c><c>      4.00000000</c><c>  PAW_PBE Si 05Jan2001                  </c></rc>
    <rc><c>  12</c><c>Ni</c><c>     58.69000000</c><c>     10.00000000</c><c>  PAW_PBE Ni 02Aug2007                  </c></rc>
    <rc><c>  24</c><c>O </c><c>     16.00000000</c><c>      6.00000000</c><c>  PAW_PBE O 08Apr2002                   </c></rc>
    <rc><c>   4</c><c>Te</c><c>    127.60000000</c><c>      6.00000000</c><c>  PAW_PBE Te 08Apr2002                  </c></rc>
    <rc><c>   1</c><c>H </c><c>      1.00000000</c><c>      1.00000000</c><c>  PAW_PBE H 15Jun2001                   </c></rc>
   </set>
  </array>
 </atominfo>
 <structure name="initialpos" >
  <crystal>
   <varray name="basis" >
    <v>      10.15022300       0.00000000       0.00000000 </v>
    <v>      -5.07509751       8.79036713       0.00000000 </v>
    <v>       0.00000000      -0.00005351      34.93840000 </v>
   </varray>
   <i name="volume">   3117.35032185 </i>
   <varray name="rec_basis" >
    <v>       0.09852000       0.05688029       0.00000009 </v>
    <v>       0.00000000       0.11376089       0.00000017 </v>
    <v>       0.00000000       0.00000000       0.02862180 </v>
   </varray>
  </crystal>
  <varray name="positions" >
   <v>       0.16667366       0.00004580       0.61006135 </v>
   <v>       0.16637305       0.50022234       0.60993642 </v>
   <v>       0.66716571       0.00036211       0.60992404 </v>
   <v>       0.66650029       0.49955136       0.60992543 </v>
   <v>       0.33361030       0.33311426       0.60993635 </v>
   <v>       0.33294361       0.83323741       0.60992792 </v>
   <v>       0.83343401       0.33341360       0.61006127 </v>
   <v>       0.83375654       0.83390732       0.60992142 </v>
   <v>       0.00028507       0.16689652       0.61003976 </v>
   <v>       0.99982389       0.66665201       0.61003528 </v>
   <v>       0.50003877       0.16642317       0.61003673 </v>
   <v>       0.50004856       0.66665542       0.60968089 </v>
   <v>       0.16716988       0.16712181       0.57421552 </v>
   <v>       0.16678725       0.66712435       0.57415244 </v>
   <v>       0.66718501       0.16715560       0.57420978 </v>
   <v>       0.66715300       0.66712782       0.57411902 </v>
   <v>       0.16700485       0.16696374       0.64601922 </v>
   <v>       0.16680690       0.66675619       0.64588573 </v>
   <v>       0.66678888       0.16655750       0.64601130 </v>
   <v>       0.66517304       0.66676524       0.64582508 </v>
   <v>       0.16681037       0.00011380       0.71119294 </v>
   <v>       0.16646998       0.49972048       0.71114167 </v>
   <v>       0.66680381       0.00051431       0.71111776 </v>
   <v>       0.66723355       0.50017099       0.71111691 </v>
   <v>       0.16576242       0.00011300       0.50957133 </v>
   <v>       0.16572867       0.50010662       0.50955474 </v>
   <v>       0.66580229       0.00015325       0.50954746 </v>
   <v>       0.66577727       0.50006226       0.50955027 </v>
   <v>       0.33283996       0.99991525       0.57421067 </v>
   <v>       0.33288298       0.49993474       0.57412947 </v>
   <v>       0.83326441       0.00031550       0.57414820 </v>
   <v>       0.83287623       0.49989092       0.57420908 </v>
   <v>       0.33331909       0.99980933       0.64601201 </v>
   <v>       0.33499483       0.50168149       0.64585545 </v>
   <v>       0.83332385       0.00001078       0.64587470 </v>
   <v>       0.83312695       0.50001411       0.64600939 </v>
   <v>       0.33310272       0.33309542       0.71114007 </v>
   <v>       0.33354963       0.83386566       0.71112233 </v>
   <v>       0.83349812       0.33345145       0.71119210 </v>
   <v>       0.83388151       0.83343241       0.71111378 </v>
   <v>       0.33433704       0.33419569       0.50955683 </v>
   <v>       0.33429103       0.83424493       0.50954830 </v>
   <v>       0.83435173       0.33423792       0.50957221 </v>
   <v>       0.83437899       0.83427161       0.50954532 </v>
   <v>       0.00007537       0.33304709       0.57421669 </v>
   <v>       0.00011074       0.83305767       0.57420804 </v>
   <v>       0.50007070       0.33265323       0.57415568 </v>
   <v>       0.50007680       0.83302549       0.57411978 </v>
   <v>       0.00027641       0.33357998       0.64601903 </v>
   <v>       0.99986916       0.83335952       0.64600879 </v>
   <v>       0.50006924       0.33337777       0.64588323 </v>
   <v>       0.50008066       0.83173916       0.64583035 </v>
   <v>       0.99967195       0.16629465       0.71105529 </v>
   <v>       0.00064810       0.66676486       0.71104943 </v>
   <v>       0.50013888       0.16726506       0.71105050 </v>
   <v>       0.50025651       0.66686635       0.71202759 </v>
   <v>       0.49989404       0.16560098       0.50955884 </v>
   <v>       0.49988999       0.66566474       0.50951679 </v>
   <v>       0.99996602       0.16573566       0.50956097 </v>
   <v>       0.99983356       0.66566767       0.50955547 </v>
   <v>       0.16569694       0.16536682       0.69593468 </v>
   <v>       0.16644502       0.66678171       0.69567920 </v>
   <v>       0.66712148       0.16825243       0.69592414 </v>
   <v>       0.67554112       0.66681792       0.69458888 </v>
   <v>       0.16735865       0.16736772       0.52394901 </v>
   <v>       0.16730612       0.66738670       0.52388318 </v>
   <v>       0.66737801       0.16739796       0.52394284 </v>
   <v>       0.66736067       0.66736005       0.52386347 </v>
   <v>       0.33316152       0.00125540       0.69592698 </v>
   <v>       0.32485362       0.49147587       0.69463036 </v>
   <v>       0.83390862       0.00054279       0.69566270 </v>
   <v>       0.83463960       0.49979916       0.69592366 </v>
   <v>       0.33260201       0.99998399       0.52394438 </v>
   <v>       0.33261906       0.49997178       0.52386929 </v>
   <v>       0.83266876       0.00002642       0.52388043 </v>
   <v>       0.83263658       0.49996563       0.52394255 </v>
   <v>       0.99874866       0.33232102       0.69593289 </v>
   <v>       0.00162050       0.83373612       0.69592277 </v>
   <v>       0.50015413       0.33305190       0.69567435 </v>
   <v>       0.50019573       0.84217192       0.69459394 </v>
   <v>       0.00001807       0.33265865       0.52395043 </v>
   <v>       0.00003278       0.83266750       0.52394086 </v>
   <v>       0.50002730       0.33260957       0.52389030 </v>
   <v>       0.50000644       0.83267642       0.52386153 </v>
   <v>       0.99999459       0.99999180       0.34957270 </v>
   <v>       0.99998821       0.49998841       0.34957238 </v>
   <v>       0.49998934       0.99999169       0.34957467 </v>
   <v>       0.49998315       0.49999404       0.34957251 </v>
   <v>       0.00001210       0.99999770       0.44108245 </v>
   <v>       0.99997482       0.49997854       0.44108174 </v>
   <v>       0.49999249       0.00001554       0.44108206 </v>
   <v>       0.49998467       0.49998657       0.44107362 </v>
   <v>       0.33332534       0.16666184       0.39483890 </v>
   <v>       0.33331961       0.66665857       0.39483993 </v>
   <v>       0.83332403       0.16665671       0.39483985 </v>
   <v>       0.83332584       0.66665850       0.39483857 </v>
   <v>       0.31843277       0.32453548       0.36215970 </v>
   <v>       0.31843517       0.82452880       0.36215958 </v>
   <v>       0.81843275       0.32453018       0.36215757 </v>
   <v>       0.81843284       0.82453470       0.36216059 </v>
   <v>       0.17545013       0.49389303       0.36215893 </v>
   <v>       0.17545319       0.99389465       0.36215806 </v>
   <v>       0.67544118       0.49389381       0.36215869 </v>
   <v>       0.67544929       0.99389314       0.36216122 </v>
   <v>       0.00609607       0.18155191       0.36215943 </v>
   <v>       0.00609398       0.68154836       0.36215959 </v>
   <v>       0.50609414       0.18155409       0.36215993 </v>
   <v>       0.50609399       0.68155570       0.36216219 </v>
   <v>       0.00626683       0.32479283       0.42714057 </v>
   <v>       0.00626870       0.82479255       0.42713983 </v>
   <v>       0.50627132       0.32479681       0.42714413 </v>
   <v>       0.50627029       0.82480468       0.42714686 </v>
   <v>       0.17520082       0.18147664       0.42714127 </v>
   <v>       0.17518667       0.68146518       0.42714621 </v>
   <v>       0.67519908       0.18147799       0.42714130 </v>
   <v>       0.67519313       0.68147032       0.42714833 </v>
   <v>       0.31851261       0.49371756       0.42714538 </v>
   <v>       0.31851113       0.99371486       0.42714172 </v>
   <v>       0.81850992       0.49371575       0.42714044 </v>
   <v>       0.81852092       0.99371449       0.42714790 </v>
   <v>       0.16666511       0.33333267       0.39461729 </v>
   <v>       0.16666352       0.83333313       0.39461691 </v>
   <v>       0.66666580       0.33333261       0.39461699 </v>
   <v>       0.66666717       0.83333384       0.39461754 </v>
   <v>       0.50054075       0.66707766       0.74155432 </v>
  </varray>
  <varray name="selective"  type="logical" >
   <v type="logical" >  F  F  F </v>
   <v type="logical" >  F  F  F </v>
   <v type="logical" >  F  F  F </v>
   <v type="logical" >  F  F  F </v>
   <v type="logical" >  F  F  F </v>
   <v type="logical" >  F  F  F </v>
   <v type="logical" >  F  F  F </v>
   <v type="logical" >  F  F  F </v>
   <v type="logical" >  F  F  F </v>
   <v type="logical" >  F  F  F </v>
   <v type="logical" >  F  F  F </v>
   <v type="logical" >  F  F  F </v>
   <v type="logical" >  F  F  F </v>
   <v type="logical" >  F  F  F </v>
   <v type="logical" >  F  F  F </v>
   <v type="logical" >  F  F  F </v>
   <v type="logical" >  F  F  F </v>
   <v type="logical" >  F  F  F </v>
   <v type="logical" >  F  F  F </v>
   <v type="logical" >  F  F  F </v>
   <v type="logical" >  F  F  F </v>
   <v type="logical" >  F  F  F </v>
   <v type="logical" >  F  F  F </v>
   <v type="logical" >  F  F  F </v>
   <v type="logical" >  F  F  F </v>
   <v type="logical" >  F  F  F </v>
   <v type="logical" >  F  F  F </v>
   <v type="logical" >  F  F  F </v>
   <v type="logical" >  F  F  F </v>
   <v type="logical" >  F  F  F </v>
   <v type="logical" >  F  F  F </v>
   <v type="logical" >  F  F  F </v>
   <v type="logical" >  F  F  F </v>
   <v type="logical" >  F  F  F </v>
   <v type="logical" >  F  F  F </v>
   <v type="logical" >  F  F  F </v>
   <v type="logical" >  F  F  F </v>
   <v type="logical" >  F  F  F </v>
   <v type="logical" >  F  F  F </v>
   <v type="logical" >  F  F  F </v>
   <v type="logical" >  F  F  F </v>
   <v type="logical" >  F  F  F </v>
   <v type="logical" >  F  F  F </v>
   <v type="logical" >  F  F  F </v>
   <v type="logical" >  F  F  F </v>
   <v type="logical" >  F  F  F </v>
   <v type="logical" >  F  F  F </v>
   <v type="logical" >  F  F  F </v>
   <v type="logical" >  F  F  F </v>
   <v type="logical" >  F  F  F </v>
   <v type="logical" >  F  F  F </v>
   <v type="logical" >  F  F  F </v>
   <v type="logical" >  F  F  F </v>
   <v type="logical" >  F  F  F </v>
   <v type="logical" >  F  F  F </v>
   <v type="logical" >  F  F  F </v>
   <v type="logical" >  F  F  F </v>
   <v type="logical" >  F  F  F </v>
   <v type="logical" >  F  F  F </v>
   <v type="logical" >  F  F  F </v>
   <v type="logical" >  F  F  F </v>
   <v type="logical" >  F  F  F </v>
   <v type="logical" >  F  F  F </v>
   <v type="logical" >  F  F  F </v>
   <v type="logical" >  F  F  F </v>
   <v type="logical" >  F  F  F </v>
   <v type="logical" >  F  F  F </v>
   <v type="logical" >  F  F  F </v>
   <v type="logical" >  F  F  F </v>
   <v type="logical" >  F  F  F </v>
   <v type="logical" >  F  F  F </v>
   <v type="logical" >  F  F  F </v>
   <v type="logical" >  F  F  F </v>
   <v type="logical" >  F  F  F </v>
   <v type="logical" >  F  F  F </v>
   <v type="logical" >  F  F  F </v>
   <v type="logical" >  F  F  F </v>
   <v type="logical" >  F  F  F </v>
   <v type="logical" >  F  F  F </v>
   <v type="logical" >  F  F  F </v>
   <v type="logical" >  F  F  F </v>
   <v type="logical" >  F  F  F </v>
   <v type="logical" >  F  F  F </v>
   <v type="logical" >  F  F  F </v>
   <v type="logical" >  F  F  F </v>
   <v type="logical" >  F  F  F </v>
   <v type="logical" >  F  F  F </v>
   <v type="logical" >  F  F  F </v>
   <v type="logical" >  F  F  F </v>
   <v type="logical" >  F  F  F </v>
   <v type="logical" >  F  F  F </v>
   <v type="logical" >  F  F  F </v>
   <v type="logical" >  F  F  F </v>
   <v type="logical" >  F  F  F </v>
   <v type="logical" >  F  F  F </v>
   <v type="logical" >  F  F  F </v>
   <v type="logical" >  F  F  F </v>
   <v type="logical" >  F  F  F </v>
   <v type="logical" >  F  F  F </v>
   <v type="logical" >  F  F  F </v>
   <v type="logical" >  F  F  F </v>
   <v type="logical" >  F  F  F </v>
   <v type="logical" >  F  F  F </v>
   <v type="logical" >  F  F  F </v>
   <v type="logical" >  F  F  F </v>
   <v type="logical" >  F  F  F </v>
   <v type="logical" >  F  F  F </v>
   <v type="logical" >  F  F  F </v>
   <v type="logical" >  F  F  F </v>
   <v type="logical" >  F  F  F </v>
   <v type="logical" >  F  F  F </v>
   <v type="logical" >  F  F  F </v>
   <v type="logical" >  F  F  F </v>
   <v type="logical" >  F  F  F </v>
   <v type="logical" >  F  F  F </v>
   <v type="logical" >  F  F  F </v>
   <v type="logical" >  F  F  F </v>
   <v type="logical" >  F  F  F </v>
   <v type="logical" >  F  F  F </v>
   <v type="logical" >  F  F  F </v>
   <v type="logical" >  F  F  F </v>
   <v type="logical" >  F  F  F </v>
   <v type="logical" >  F  F  F </v>
   <v type="logical" >  F  F  F </v>
   <v type="logical" >  T  T  T </v>
  </varray>
  <nose>
   <v>      -3.00000000       0.00000000       0.00010000       0.00010000 </v>
  </nose>
 </structure>
 <calculation>
  <scstep>
   <time name="dav">   24.01   24.07</time>
   <time name="total">   26.01   26.09</time>
   <energy>
    <i name="alphaZ">   1018.42134492 </i>
    <i name="ewald"> 608967.82877597 </i>
    <i name="hartreedc">-665280.27762571 </i>
    <i name="XCdc">   2501.42361535 </i>
    <i name="pawpsdc">  50616.36816093 </i>
    <i name="pawaedc"> -50720.20435479 </i>
    <i name="eentropy">     -0.04396343 </i>
    <i name="bandstr">    -63.31989105 </i>
    <i name="atom">  61727.44551671 </i>
    <i name="e_fr_energy">   8767.64157890 </i>
    <i name="e_wo_entrp">   8767.68554232 </i>
    <i name="e_0_energy">   8767.66356061 </i>
   </energy>
  </scstep>
  <scstep>
   <time name="dav">   23.79   23.84</time>
   <time name="total">   23.81   23.86</time>
   <energy>
    <i name="e_fr_energy">    146.73805846 </i>
    <i name="e_wo_entrp">    146.80597290 </i>
    <i name="e_0_energy">    146.77201568 </i>
   </energy>
  </scstep>
  <scstep>
   <time name="dav">   24.81   24.87</time>
   <time name="total">   24.83   24.89</time>
   <energy>
    <i name="e_fr_energy">  -1037.07515236 </i>
    <i name="e_wo_entrp">  -1036.96918850 </i>
    <i name="e_0_energy">  -1037.02217043 </i>
   </energy>
  </scstep>
  <scstep>
   <time name="dav">   24.07   24.13</time>
   <time name="total">   24.07   24.13</time>
   <energy>
    <i name="e_fr_energy">  -1101.74525329 </i>
    <i name="e_wo_entrp">  -1101.69509394 </i>
    <i name="e_0_energy">  -1101.72017361 </i>
   </energy>
  </scstep>
  <scstep>
   <time name="dav">   28.46   28.53</time>
   <time name="total">   29.90   29.98</time>
   <energy>
    <i name="e_fr_energy">  -1104.76718310 </i>
    <i name="e_wo_entrp">  -1104.71645007 </i>
    <i name="e_0_energy">  -1104.74181659 </i>
   </energy>
  </scstep>
  <scstep>
   <time name="dav">   30.48   30.55</time>
   <time name="total">   34.54   34.62</time>
   <energy>
    <i name="e_fr_energy">  -1718.45190877 </i>
    <i name="e_wo_entrp">  -1718.35486802 </i>
    <i name="e_0_energy">  -1718.40338840 </i>
   </energy>
  </scstep>
  <scstep>
   <time name="dav">   26.47   26.54</time>
   <time name="total">   30.05   30.12</time>
   <energy>
    <i name="e_fr_energy">  -1021.04001310 </i>
    <i name="e_wo_entrp">  -1020.96404262 </i>
    <i name="e_0_energy">  -1021.00202786 </i>
   </energy>
  </scstep>
  <scstep>
   <time name="dav">   27.47   27.54</time>
   <time name="total">   32.00   32.07</time>
   <energy>
    <i name="e_fr_energy">  -1623.36698524 </i>
    <i name="e_wo_entrp">  -1623.34186814 </i>
    <i name="e_0_energy">  -1623.35442669 </i>
   </energy>
  </scstep>
  <scstep>
   <time name="dav">   29.99   30.06</time>
   <time name="total">   34.28   34.36</time>
   <energy>
    <i name="e_fr_energy">  -1128.57257182 </i>
    <i name="e_wo_entrp">  -1128.55678185 </i>
    <i name="e_0_energy">  -1128.56467683 </i>
   </energy>
  </scstep>
  <scstep>
   <time name="dav">   26.42   26.49</time>
   <time name="total">   30.82   30.89</time>
   <energy>
    <i name="e_fr_energy">  -1035.06843358 </i>
    <i name="e_wo_entrp">  -1035.01759502 </i>
    <i name="e_0_energy">  -1035.04301430 </i>
   </energy>
  </scstep>
  <scstep>
   <time name="dav">   28.90   28.97</time>
   <time name="total">   32.17   32.24</time>
   <energy>
    <i name="e_fr_energy">   -912.22011574 </i>
    <i name="e_wo_entrp">   -912.20269486 </i>
    <i name="e_0_energy">   -912.21140530 </i>
   </energy>
  </scstep>
  <scstep>
   <time name="dav">   27.68   27.75</time>
   <time name="total">   31.29   31.36</time>
   <energy>
    <i name="e_fr_energy">   -854.30969508 </i>
    <i name="e_wo_entrp">   -854.27599606 </i>
    <i name="e_0_energy">   -854.29284557 </i>
   </energy>
  </scstep>
  <scstep>
   <time name="dav">   25.67   25.74</time>
   <time name="total">   29.18   29.25</time>
   <energy>
    <i name="e_fr_energy">   -850.42839028 </i>
    <i name="e_wo_entrp">   -850.39283499 </i>
    <i name="e_0_energy">   -850.41061263 </i>
   </energy>
  </scstep>
  <scstep>
   <time name="dav">   26.59   26.65</time>
   <time name="total">   30.55   30.62</time>
   <energy>
    <i name="e_fr_energy">   -842.42130512 </i>
    <i name="e_wo_entrp">   -842.37344090 </i>
    <i name="e_0_energy">   -842.39737301 </i>
   </energy>
  </scstep>
  <scstep>
   <time name="dav">   27.23   27.30</time>
   <time name="total">   30.99   31.06</time>
   <energy>
    <i name="e_fr_energy">   -832.31136428 </i>
    <i name="e_wo_entrp">   -832.21857986 </i>
    <i name="e_0_energy">   -832.26497207 </i>
   </energy>
  </scstep>
  <scstep>
   <time name="dav">   25.65   25.71</time>
   <time name="total">   29.46   29.53</time>
   <energy>
    <i name="e_fr_energy">   -842.88348307 </i>
    <i name="e_wo_entrp">   -842.84177176 </i>
    <i name="e_0_energy">   -842.86262742 </i>
   </energy>
  </scstep>
  <scstep>
   <time name="dav">   26.71   26.78</time>
   <time name="total">   30.45   30.53</time>
   <energy>
    <i name="e_fr_energy">   -837.76018442 </i>
    <i name="e_wo_entrp">   -837.71913983 </i>
    <i name="e_0_energy">   -837.73966212 </i>
   </energy>
  </scstep>
  <scstep>
   <time name="dav">   28.24   28.31</time>
   <time name="total">   31.88   31.95</time>
   <energy>
    <i name="e_fr_energy">   -829.85830267 </i>
    <i name="e_wo_entrp">   -829.81622687 </i>
    <i name="e_0_energy">   -829.83726477 </i>
   </energy>
  </scstep>
  <scstep>
   <time name="dav">   26.37   26.43</time>
   <time name="total">   30.14   30.21</time>
   <energy>
    <i name="e_fr_energy">   -830.95052556 </i>
    <i name="e_wo_entrp">   -830.89172601 </i>
    <i name="e_0_energy">   -830.92112579 </i>
   </energy>
  </scstep>
  <scstep>
   <time name="dav">   27.46   27.53</time>
   <time name="total">   32.24   32.32</time>
   <energy>
    <i name="e_fr_energy">   -835.73729765 </i>
    <i name="e_wo_entrp">   -835.68511184 </i>
    <i name="e_0_energy">   -835.71120474 </i>
   </energy>
  </scstep>
  <scstep>
   <time name="dav">   26.90   26.97</time>
   <time name="total">   31.12   31.20</time>
   <energy>
    <i name="e_fr_energy">   -836.97830271 </i>
    <i name="e_wo_entrp">   -836.93271605 </i>
    <i name="e_0_energy">   -836.95550938 </i>
   </energy>
  </scstep>
  <scstep>
   <time name="dav">   27.64   27.71</time>
   <time name="total">   31.96   32.04</time>
   <energy>
    <i name="e_fr_energy">   -841.06685304 </i>
    <i name="e_wo_entrp">   -841.00976657 </i>
    <i name="e_0_energy">   -841.03830981 </i>
   </energy>
  </scstep>
  <scstep>
   <time name="dav">   27.88   27.95</time>
   <time name="total">   32.35   32.43</time>
   <energy>
    <i name="e_fr_energy">   -855.00497817 </i>
    <i name="e_wo_entrp">   -854.95780232 </i>
    <i name="e_0_energy">   -854.98139025 </i>
   </energy>
  </scstep>
  <scstep>
   <time name="dav">   27.75   27.81</time>
   <time name="total">   31.86   31.94</time>
   <energy>
    <i name="e_fr_energy">   -865.44261578 </i>
    <i name="e_wo_entrp">   -865.37333817 </i>
    <i name="e_0_energy">   -865.40797698 </i>
   </energy>
  </scstep>
  <scstep>
   <time name="dav">   26.72   26.79</time>
   <time name="total">   31.51   31.59</time>
   <energy>
    <i name="e_fr_energy">   -876.07349956 </i>
    <i name="e_wo_entrp">   -876.02876726 </i>
    <i name="e_0_energy">   -876.05113341 </i>
   </energy>
  </scstep>
  <scstep>
   <time name="dav">   28.64   28.71</time>
   <time name="total">   33.67   33.75</time>
   <energy>
    <i name="e_fr_energy">   -886.91028335 </i>
    <i name="e_wo_entrp">   -886.89790481 </i>
    <i name="e_0_energy">   -886.90409408 </i>
   </energy>
  </scstep>
  <scstep>
   <time name="dav">   27.11   27.17</time>
   <time name="total">   31.65   31.72</time>
   <energy>
    <i name="e_fr_energy">   -899.13625170 </i>
    <i name="e_wo_entrp">   -899.10097936 </i>
    <i name="e_0_energy">   -899.11861553 </i>
   </energy>
  </scstep>
  <scstep>
   <time name="dav">   26.25   26.32</time>
   <time name="total">   30.88   30.96</time>
   <energy>
    <i name="e_fr_energy">   -899.58189578 </i>
    <i name="e_wo_entrp">   -899.55693565 </i>
    <i name="e_0_energy">   -899.56941571 </i>
   </energy>
  </scstep>
  <scstep>
   <time name="dav">   26.56   26.62</time>
   <time name="total">   30.06   30.13</time>
   <energy>
    <i name="e_fr_energy">   -898.62038770 </i>
    <i name="e_wo_entrp">   -898.59176801 </i>
    <i name="e_0_energy">   -898.60607785 </i>
   </energy>
  </scstep>
  <scstep>
   <time name="dav">   27.64   27.71</time>
   <time name="total">   32.11   32.18</time>
   <energy>
    <i name="e_fr_energy">   -909.17123364 </i>
    <i name="e_wo_entrp">   -909.17113656 </i>
    <i name="e_0_energy">   -909.17118510 </i>
   </energy>
  </scstep>
  <scstep>
   <time name="dav">   26.02   26.08</time>
   <time name="total">   30.69   30.76</time>
   <energy>
    <i name="e_fr_energy">   -923.46236703 </i>
    <i name="e_wo_entrp">   -923.45123184 </i>
    <i name="e_0_energy">   -923.45679944 </i>
   </energy>
  </scstep>
  <scstep>
   <time name="dav">   26.50   26.56</time>
   <time name="total">   30.43   30.51</time>
   <energy>
    <i name="e_fr_energy">   -928.47070272 </i>
    <i name="e_wo_entrp">   -928.45606161 </i>
    <i name="e_0_energy">   -928.46338217 </i>
   </energy>
  </scstep>
  <scstep>
   <time name="dav">   27.63   27.69</time>
   <time name="total">   31.59   31.67</time>
   <energy>
    <i name="e_fr_energy">   -932.26857649 </i>
    <i name="e_wo_entrp">   -932.22334419 </i>
    <i name="e_0_energy">   -932.24596034 </i>
   </energy>
  </scstep>
  <scstep>
   <time name="dav">   25.76   25.82</time>
   <time name="total">   29.74   29.81</time>
   <energy>
    <i name="e_fr_energy">   -932.10236452 </i>
    <i name="e_wo_entrp">   -932.07046731 </i>
    <i name="e_0_energy">   -932.08641592 </i>
   </energy>
  </scstep>
  <scstep>
   <time name="dav">   27.51   27.58</time>
   <time name="total">   31.15   31.23</time>
   <energy>
    <i name="e_fr_energy">   -933.13930291 </i>
    <i name="e_wo_entrp">   -933.11626020 </i>
    <i name="e_0_energy">   -933.12778156 </i>
   </energy>
  </scstep>
  <scstep>
   <time name="dav">   25.76   25.82</time>
   <time name="total">   29.63   29.70</time>
   <energy>
    <i name="e_fr_energy">   -935.45108520 </i>
    <i name="e_wo_entrp">   -935.45034056 </i>
    <i name="e_0_energy">   -935.45071288 </i>
   </energy>
  </scstep>
  <scstep>
   <time name="dav">   27.09   27.15</time>
   <time name="total">   31.23   31.30</time>
   <energy>
    <i name="e_fr_energy">   -937.15718705 </i>
    <i name="e_wo_entrp">   -937.10491181 </i>
    <i name="e_0_energy">   -937.13104943 </i>
   </energy>
  </scstep>
  <scstep>
   <time name="dav">   24.62   24.68</time>
   <time name="total">   29.18   29.25</time>
   <energy>
    <i name="e_fr_energy">   -934.10342969 </i>
    <i name="e_wo_entrp">   -934.04619629 </i>
    <i name="e_0_energy">   -934.07481299 </i>
   </energy>
  </scstep>
  <scstep>
   <time name="dav">   25.67   25.73</time>
   <time name="total">   30.01   30.08</time>
   <energy>
    <i name="e_fr_energy">   -938.86667360 </i>
    <i name="e_wo_entrp">   -938.83543197 </i>
    <i name="e_0_energy">   -938.85105279 </i>
   </energy>
  </scstep>
  <scstep>
   <time name="dav">   24.84   24.90</time>
   <time name="total">   28.74   28.81</time>
   <energy>
    <i name="e_fr_energy">   -945.53728813 </i>
    <i name="e_wo_entrp">   -945.52099992 </i>
    <i name="e_0_energy">   -945.52914402 </i>
   </energy>
  </scstep>
  <scstep>
   <time name="dav">   25.37   25.43</time>
   <time name="total">   28.99   29.06</time>
   <energy>
    <i name="e_fr_energy">   -948.20480101 </i>
    <i name="e_wo_entrp">   -948.15599140 </i>
    <i name="e_0_energy">   -948.18039620 </i>
   </energy>
  </scstep>
  <scstep>
   <time name="dav">   25.15   25.21</time>
   <time name="total">   29.37   29.44</time>
   <energy>
    <i name="e_fr_energy">   -944.50922822 </i>
    <i name="e_wo_entrp">   -944.47693513 </i>
    <i name="e_0_energy">   -944.49308168 </i>
   </energy>
  </scstep>
  <scstep>
   <time name="dav">   25.89   25.95</time>
   <time name="total">   30.44   30.51</time>
   <energy>
    <i name="e_fr_energy">   -943.78942650 </i>
    <i name="e_wo_entrp">   -943.76768486 </i>
    <i name="e_0_energy">   -943.77855568 </i>
   </energy>
  </scstep>
  <scstep>
   <time name="dav">   26.43   26.49</time>
   <time name="total">   29.59   29.66</time>
   <energy>
    <i name="e_fr_energy">   -944.75457790 </i>
    <i name="e_wo_entrp">   -944.71431525 </i>
    <i name="e_0_energy">   -944.73444658 </i>
   </energy>
  </scstep>
  <scstep>
   <time name="dav">   27.20   27.27</time>
   <time name="total">   30.65   30.72</time>
   <energy>
    <i name="e_fr_energy">   -946.81108702 </i>
    <i name="e_wo_entrp">   -946.76962576 </i>
    <i name="e_0_energy">   -946.79035639 </i>
   </energy>
  </scstep>
  <scstep>
   <time name="dav">   25.63   25.69</time>
   <time name="total">   29.53   29.60</time>
   <energy>
    <i name="e_fr_energy">   -948.18337693 </i>
    <i name="e_wo_entrp">   -948.12715410 </i>
    <i name="e_0_energy">   -948.15526551 </i>
   </energy>
  </scstep>
  <scstep>
   <time name="dav">   23.16   23.22</time>
   <time name="total">   26.46   26.52</time>
   <energy>
    <i name="e_fr_energy">   -951.05774445 </i>
    <i name="e_wo_entrp">   -951.01219567 </i>
    <i name="e_0_energy">   -951.03497006 </i>
   </energy>
  </scstep>
  <scstep>
   <time name="dav">   20.36   20.41</time>
   <time name="total">   23.46   23.52</time>
   <energy>
    <i name="e_fr_energy">   -952.32187518 </i>
    <i name="e_wo_entrp">   -952.27735262 </i>
    <i name="e_0_energy">   -952.29961390 </i>
   </energy>
  </scstep>
  <scstep>
   <time name="dav">   15.80   15.84</time>
   <time name="total">   18.30   18.34</time>
   <energy>
    <i name="e_fr_energy">   -952.74926571 </i>
    <i name="e_wo_entrp">   -952.71189802 </i>
    <i name="e_0_energy">   -952.73058186 </i>
   </energy>
  </scstep>
  <scstep>
   <time name="dav">   18.52   18.57</time>
   <time name="total">   21.23   21.29</time>
   <energy>
    <i name="e_fr_energy">   -952.94899205 </i>
    <i name="e_wo_entrp">   -952.90753199 </i>
    <i name="e_0_energy">   -952.92826202 </i>
   </energy>
  </scstep>
  <scstep>
   <time name="dav">   24.35   24.41</time>
   <time name="total">   27.33   27.40</time>
   <energy>
    <i name="e_fr_energy">   -954.93152212 </i>
    <i name="e_wo_entrp">   -954.90360867 </i>
    <i name="e_0_energy">   -954.91756540 </i>
   </energy>
  </scstep>
  <scstep>
   <time name="dav">   23.72   23.78</time>
   <time name="total">   27.27   27.34</time>
   <energy>
    <i name="e_fr_energy">   -956.62717777 </i>
    <i name="e_wo_entrp">   -956.58400871 </i>
    <i name="e_0_energy">   -956.60559324 </i>
   </energy>
  </scstep>
  <scstep>
   <time name="dav">   24.04   24.09</time>
   <time name="total">   27.88   27.95</time>
   <energy>
    <i name="e_fr_energy">   -957.47129558 </i>
    <i name="e_wo_entrp">   -957.43116304 </i>
    <i name="e_0_energy">   -957.45122931 </i>
   </energy>
  </scstep>
  <scstep>
   <time name="dav">   24.77   24.83</time>
   <time name="total">   28.61   28.68</time>
   <energy>
    <i name="e_fr_energy">   -957.24890670 </i>
    <i name="e_wo_entrp">   -957.22324355 </i>
    <i name="e_0_energy">   -957.23607512 </i>
   </energy>
  </scstep>
  <scstep>
   <time name="dav">   21.41   21.46</time>
   <time name="total">   25.29   25.36</time>
   <energy>
    <i name="e_fr_energy">   -956.46262658 </i>
    <i name="e_wo_entrp">   -956.43684341 </i>
    <i name="e_0_energy">   -956.44973499 </i>
   </energy>
  </scstep>
  <scstep>
   <time name="dav">   24.25   24.31</time>
   <time name="total">   27.62   27.69</time>
   <energy>
    <i name="e_fr_energy">   -956.67009054 </i>
    <i name="e_wo_entrp">   -956.64298492 </i>
    <i name="e_0_energy">   -956.65653773 </i>
   </energy>
  </scstep>
  <scstep>
   <time name="dav">   24.10   24.15</time>
   <time name="total">   28.01   28.08</time>
   <energy>
    <i name="e_fr_energy">   -957.44318104 </i>
    <i name="e_wo_entrp">   -957.41568604 </i>
    <i name="e_0_energy">   -957.42943354 </i>
   </energy>
  </scstep>
  <scstep>
   <time name="dav">   24.23   24.29</time>
   <time name="total">   27.22   27.28</time>
   <energy>
    <i name="e_fr_energy">   -957.82096399 </i>
    <i name="e_wo_entrp">   -957.79344514 </i>
    <i name="e_0_energy">   -957.80720457 </i>
   </energy>
  </scstep>
  <scstep>
   <time name="dav">   24.03   24.09</time>
   <time name="total">   27.24   27.31</time>
   <energy>
    <i name="e_fr_energy">   -958.23263812 </i>
    <i name="e_wo_entrp">   -958.20781577 </i>
    <i name="e_0_energy">   -958.22022695 </i>
   </energy>
  </scstep>
  <scstep>
   <time name="dav">   21.42   21.47</time>
   <time name="total">   24.91   24.97</time>
   <energy>
    <i name="e_fr_energy">   -958.21144008 </i>
    <i name="e_wo_entrp">   -958.18628846 </i>
    <i name="e_0_energy">   -958.19886427 </i>
   </energy>
  </scstep>
  <scstep>
   <time name="dav">   22.05   22.11</time>
   <time name="total">   25.71   25.78</time>
   <energy>
    <i name="e_fr_energy">   -958.17804128 </i>
    <i name="e_wo_entrp">   -958.14909210 </i>
    <i name="e_0_energy">   -958.16356669 </i>
   </energy>
  </scstep>
  <scstep>
   <time name="dav">   23.60   23.66</time>
   <time name="total">   26.91   26.97</time>
   <energy>
    <i name="e_fr_energy">   -958.14903584 </i>
    <i name="e_wo_entrp">   -958.12215141 </i>
    <i name="e_0_energy">   -958.13559363 </i>
   </energy>
  </scstep>
  <scstep>
   <time name="dav">   23.16   23.21</time>
   <time name="total">   26.05   26.11</time>
   <energy>
    <i name="e_fr_energy">   -958.13277802 </i>
    <i name="e_wo_entrp">   -958.10397814 </i>
    <i name="e_0_energy">   -958.11837808 </i>
   </energy>
  </scstep>
  <scstep>
   <time name="dav">   20.81   20.86</time>
   <time name="total">   24.31   24.37</time>
   <energy>
    <i name="e_fr_energy">   -958.03070565 </i>
    <i name="e_wo_entrp">   -958.00199590 </i>
    <i name="e_0_energy">   -958.01635078 </i>
   </energy>
  </scstep>
  <scstep>
   <time name="dav">   28.05   28.12</time>
   <time name="total">   32.31   32.39</time>
   <energy>
    <i name="e_fr_energy">   -957.96178625 </i>
    <i name="e_wo_entrp">   -957.93605578 </i>
    <i name="e_0_energy">   -957.94892102 </i>
   </energy>
  </scstep>
  <scstep>
   <time name="dav">   22.90   22.95</time>
   <time name="total">   26.62   26.68</time>
   <energy>
    <i name="e_fr_energy">   -957.82531140 </i>
    <i name="e_wo_entrp">   -957.80015218 </i>
    <i name="e_0_energy">   -957.81273179 </i>
   </energy>
  </scstep>
  <scstep>
   <time name="dav">   22.97   23.02</time>
   <time name="total">   26.71   26.77</time>
   <energy>
    <i name="e_fr_energy">   -957.96483775 </i>
    <i name="e_wo_entrp">   -957.93997952 </i>
    <i name="e_0_energy">   -957.95240864 </i>
   </energy>
  </scstep>
  <scstep>
   <time name="dav">   16.84   16.89</time>
   <time name="total">   20.22   20.27</time>
   <energy>
    <i name="e_fr_energy">   -958.25258790 </i>
    <i name="e_wo_entrp">   -958.22730683 </i>
    <i name="e_0_energy">   -958.23994736 </i>
   </energy>
  </scstep>
  <scstep>
   <time name="dav">   16.61   16.65</time>
   <time name="total">   19.33   19.38</time>
   <energy>
    <i name="e_fr_energy">   -958.92681292 </i>
    <i name="e_wo_entrp">   -958.90027293 </i>
    <i name="e_0_energy">   -958.91354292 </i>
   </energy>
  </scstep>
  <scstep>
   <time name="dav">   24.39   24.45</time>
   <time name="total">   28.60   28.67</time>
   <energy>
    <i name="e_fr_energy">   -959.64645825 </i>
    <i name="e_wo_entrp">   -959.61875698 </i>
    <i name="e_0_energy">   -959.63260762 </i>
   </energy>
  </scstep>
  <scstep>
   <time name="dav">   23.03   23.08</time>
   <time name="total">   26.32   26.39</time>
   <energy>
    <i name="e_fr_energy">   -960.30823343 </i>
    <i name="e_wo_entrp">   -960.27435716 </i>
    <i name="e_0_energy">   -960.29129530 </i>
   </energy>
  </scstep>
  <scstep>
   <time name="dav">   25.95   26.01</time>
   <time name="total">   29.53   29.60</time>
   <energy>
    <i name="e_fr_energy">   -960.63273074 </i>
    <i name="e_wo_entrp">   -960.59222078 </i>
    <i name="e_0_energy">   -960.61247576 </i>
   </energy>
  </scstep>
  <scstep>
   <time name="dav">   25.85   25.92</time>
   <time name="total">   29.56   29.63</time>
   <energy>
    <i name="e_fr_energy">   -960.94482385 </i>
    <i name="e_wo_entrp">   -960.90488296 </i>
    <i name="e_0_energy">   -960.92485341 </i>
   </energy>
  </scstep>
  <scstep>
   <time name="dav">   22.54   22.59</time>
   <time name="total">   25.96   26.03</time>
   <energy>
    <i name="e_fr_energy">   -961.27543975 </i>
    <i name="e_wo_entrp">   -961.23173048 </i>
    <i name="e_0_energy">   -961.25358511 </i>
   </energy>
  </scstep>
  <scstep>
   <time name="dav">   24.12   24.18</time>
   <time name="total">   27.38   27.45</time>
   <energy>
    <i name="e_fr_energy">   -961.36689197 </i>
    <i name="e_wo_entrp">   -961.32111207 </i>
    <i name="e_0_energy">   -961.34400202 </i>
   </energy>
  </scstep>
  <scstep>
   <time name="dav">   23.84   23.90</time>
   <time name="total">   27.16   27.22</time>
   <energy>
    <i name="e_fr_energy">   -960.90334040 </i>
    <i name="e_wo_entrp">   -960.87055607 </i>
    <i name="e_0_energy">   -960.88694824 </i>
   </energy>
  </scstep>
  <scstep>
   <time name="dav">   22.92   22.97</time>
   <time name="total">   26.14   26.21</time>
   <energy>
    <i name="e_fr_energy">   -961.31899156 </i>
    <i name="e_wo_entrp">   -961.27828499 </i>
    <i name="e_0_energy">   -961.29863827 </i>
   </energy>
  </scstep>
  <scstep>
   <time name="dav">   23.29   23.34</time>
   <time name="total">   26.49   26.55</time>
   <energy>
    <i name="e_fr_energy">   -961.57041194 </i>
    <i name="e_wo_entrp">   -961.52693418 </i>
    <i name="e_0_energy">   -961.54867306 </i>
   </energy>
  </scstep>
  <scstep>
   <time name="dav">   24.09   24.15</time>
   <time name="total">   27.49   27.56</time>
   <energy>
    <i name="e_fr_energy">   -961.77596665 </i>
    <i name="e_wo_entrp">   -961.73323836 </i>
    <i name="e_0_energy">   -961.75460250 </i>
   </energy>
  </scstep>
  <scstep>
   <time name="dav">   25.50   25.56</time>
   <time name="total">   29.66   29.74</time>
   <energy>
    <i name="e_fr_energy">   -961.93539200 </i>
    <i name="e_wo_entrp">   -961.89782004 </i>
    <i name="e_0_energy">   -961.91660602 </i>
   </energy>
  </scstep>
  <scstep>
   <time name="dav">   23.31   23.37</time>
   <time name="total">   27.02   27.08</time>
   <energy>
    <i name="e_fr_energy">   -961.98089682 </i>
    <i name="e_wo_entrp">   -961.94567909 </i>
    <i name="e_0_energy">   -961.96328795 </i>
   </energy>
  </scstep>
  <scstep>
   <time name="dav">   21.99   22.05</time>
   <time name="total">   25.02   25.08</time>
   <energy>
    <i name="e_fr_energy">   -962.04064290 </i>
    <i name="e_wo_entrp">   -962.00685208 </i>
    <i name="e_0_energy">   -962.02374749 </i>
   </energy>
  </scstep>
  <scstep>
   <time name="dav">   23.42   23.48</time>
   <time name="total">   26.50   26.56</time>
   <energy>
    <i name="e_fr_energy">   -962.20555994 </i>
    <i name="e_wo_entrp">   -962.17137137 </i>
    <i name="e_0_energy">   -962.18846565 </i>
   </energy>
  </scstep>
  <scstep>
   <time name="dav">   24.18   24.23</time>
   <time name="total">   27.43   27.50</time>
   <energy>
    <i name="e_fr_energy">   -962.30198539 </i>
    <i name="e_wo_entrp">   -962.26690346 </i>
    <i name="e_0_energy">   -962.28444442 </i>
   </energy>
  </scstep>
  <scstep>
   <time name="dav">   23.44   23.50</time>
   <time name="total">   27.19   27.25</time>
   <energy>
    <i name="e_fr_energy">   -962.32756944 </i>
    <i name="e_wo_entrp">   -962.29116268 </i>
    <i name="e_0_energy">   -962.30936606 </i>
   </energy>
  </scstep>
  <scstep>
   <time name="dav">   23.39   23.45</time>
   <time name="total">   26.45   26.52</time>
   <energy>
    <i name="e_fr_energy">   -962.36435851 </i>
    <i name="e_wo_entrp">   -962.32767391 </i>
    <i name="e_0_energy">   -962.34601621 </i>
   </energy>
  </scstep>
  <scstep>
   <time name="dav">   16.13   16.17</time>
   <time name="total">   18.70   18.75</time>
   <energy>
    <i name="e_fr_energy">   -962.36469756 </i>
    <i name="e_wo_entrp">   -962.32665119 </i>
    <i name="e_0_energy">   -962.34567437 </i>
   </energy>
  </scstep>
  <scstep>
   <time name="dav">   19.53   19.57</time>
   <time name="total">   22.16   22.22</time>
   <energy>
    <i name="e_fr_energy">   -962.36719581 </i>
    <i name="e_wo_entrp">   -962.32835773 </i>
    <i name="e_0_energy">   -962.34777677 </i>
   </energy>
  </scstep>
  <scstep>
   <time name="dav">   23.88   23.93</time>
   <time name="total">   27.21   27.28</time>
   <energy>
    <i name="e_fr_energy">   -962.37026766 </i>
    <i name="e_wo_entrp">   -962.33134923 </i>
    <i name="e_0_energy">   -962.35080845 </i>
   </energy>
  </scstep>
  <scstep>
   <time name="dav">   22.20   22.25</time>
   <time name="total">   25.72   25.79</time>
   <energy>
    <i name="e_fr_energy">   -962.37074129 </i>
    <i name="e_wo_entrp">   -962.33117625 </i>
    <i name="e_0_energy">   -962.35095877 </i>
   </energy>
  </scstep>
  <scstep>
   <time name="dav">   22.84   22.90</time>
   <time name="total">   26.80   26.87</time>
   <energy>
    <i name="e_fr_energy">   -962.37327267 </i>
    <i name="e_wo_entrp">   -962.33313592 </i>
    <i name="e_0_energy">   -962.35320430 </i>
   </energy>
  </scstep>
  <scstep>
   <time name="dav">   21.68   21.73</time>
   <time name="total">   25.26   25.32</time>
   <energy>
    <i name="e_fr_energy">   -962.37531809 </i>
    <i name="e_wo_entrp">   -962.33545313 </i>
    <i name="e_0_energy">   -962.35538561 </i>
   </energy>
  </scstep>
  <scstep>
   <time name="dav">   15.16   15.19</time>
   <time name="total">   18.35   18.39</time>
   <energy>
    <i name="e_fr_energy">   -962.37591284 </i>
    <i name="e_wo_entrp">   -962.33604260 </i>
    <i name="e_0_energy">   -962.35597772 </i>
   </energy>
  </scstep>
  <scstep>
   <time name="dav">   15.93   15.97</time>
   <time name="total">   19.57   19.61</time>
   <energy>
    <i name="e_fr_energy">   -962.37650835 </i>
    <i name="e_wo_entrp">   -962.33664688 </i>
    <i name="e_0_energy">   -962.35657762 </i>
   </energy>
  </scstep>
  <scstep>
   <time name="dav">   17.38   17.43</time>
   <time name="total">   20.72   20.77</time>
   <energy>
    <i name="e_fr_energy">   -962.37690730 </i>
    <i name="e_wo_entrp">   -962.33706144 </i>
    <i name="e_0_energy">   -962.35698437 </i>
   </energy>
  </scstep>
  <scstep>
   <time name="dav">   15.71   15.75</time>
   <time name="total">   19.09   19.14</time>
   <energy>
    <i name="e_fr_energy">   -962.37731902 </i>
    <i name="e_wo_entrp">   -962.33747844 </i>
    <i name="e_0_energy">   -962.35739873 </i>
   </energy>
  </scstep>
  <scstep>
   <time name="dav">   15.98   16.02</time>
   <time name="total">   19.98   20.03</time>
   <energy>
    <i name="e_fr_energy">   -962.37775195 </i>
    <i name="e_wo_entrp">   -962.33790423 </i>
    <i name="e_0_energy">   -962.35782809 </i>
   </energy>
  </scstep>
  <scstep>
   <time name="dav">   15.28   15.32</time>
   <time name="total">   18.40   18.45</time>
   <energy>
    <i name="e_fr_energy">   -962.37793859 </i>
    <i name="e_wo_entrp">   -962.33807621 </i>
    <i name="e_0_energy">   -962.35800740 </i>
   </energy>
  </scstep>
  <scstep>
   <time name="dav">   15.77   15.81</time>
   <time name="total">   18.96   19.01</time>
   <energy>
    <i name="e_fr_energy">   -962.37813001 </i>
    <i name="e_wo_entrp">   -962.33827315 </i>
    <i name="e_0_energy">   -962.35820158 </i>
   </energy>
  </scstep>
  <scstep>
   <time name="dav">   15.11   15.15</time>
   <time name="total">   18.69   18.73</time>
   <energy>
    <i name="e_fr_energy">   -962.37826814 </i>
    <i name="e_wo_entrp">   -962.33839987 </i>
    <i name="e_0_energy">   -962.35833401 </i>
   </energy>
  </scstep>
  <scstep>
   <time name="dav">   15.80   15.84</time>
   <time name="total">   19.50   19.55</time>
   <energy>
    <i name="e_fr_energy">   -962.37833819 </i>
    <i name="e_wo_entrp">   -962.33846754 </i>
    <i name="e_0_energy">   -962.35840286 </i>
   </energy>
  </scstep>
  <scstep>
   <time name="dav">   15.58   15.61</time>
   <time name="total">   18.69   18.74</time>
   <energy>
    <i name="e_fr_energy">   -962.37836567 </i>
    <i name="e_wo_entrp">   -962.33850802 </i>
    <i name="e_0_energy">   -962.35843684 </i>
   </energy>
  </scstep>
  <scstep>
   <time name="dav">   16.11   16.15</time>
   <time name="total">   19.00   19.05</time>
   <energy>
    <i name="e_fr_energy">   -962.37839407 </i>
    <i name="e_wo_entrp">   -962.33853607 </i>
    <i name="e_0_energy">   -962.35846507 </i>
   </energy>
  </scstep>
  <scstep>
   <time name="dav">   15.86   15.90</time>
   <time name="total">   19.20   19.24</time>
   <energy>
    <i name="e_fr_energy">   -962.37840724 </i>
    <i name="e_wo_entrp">   -962.33854611 </i>
    <i name="e_0_energy">   -962.35847668 </i>
   </energy>
  </scstep>
  <scstep>
   <time name="dav">   15.10   15.13</time>
   <time name="total">   16.88   16.92</time>
   <energy>
    <i name="alphaZ">   1018.42134492 </i>
    <i name="ewald"> 608967.82877597 </i>
    <i name="hartreedc">-666497.91460217 </i>
    <i name="XCdc">   2540.58798303 </i>
    <i name="pawpsdc"> 100509.52987606 </i>
    <i name="pawaedc">-100718.68655009 </i>
    <i name="eentropy">     -0.03986230 </i>
    <i name="bandstr">  -8509.55089541 </i>
    <i name="atom">  61727.44551671 </i>
    <i name="e_fr_energy">   -962.37841329 </i>
    <i name="e_wo_entrp">   -962.33855099 </i>
    <i name="e_0_energy">   -962.35848214 </i>
   </energy>
  </scstep>
  <structure>
   <crystal>
    <varray name="basis" >
     <v>      10.15022300       0.00000000       0.00000000 </v>
     <v>      -5.07509751       8.79036713       0.00000000 </v>
     <v>       0.00000000      -0.00005351      34.93840000 </v>
    </varray>
    <i name="volume">   3117.35032185 </i>
    <varray name="rec_basis" >
[...]
       <r>   -22.7753     0.0000    48.0000 </r>
       <r>   -22.5217     0.0000    48.0000 </r>
       <r>   -22.2681     0.0000    48.0000 </r>
       <r>   -22.0145     0.0000    48.0000 </r>
       <r>   -21.7609     0.0000    48.0000 </r>
       <r>   -21.5073     0.0000    48.0000 </r>
       <r>   -21.2537     0.0000    48.0000 </r>
       <r>   -21.0001     0.0000    48.0000 </r>
       <r>   -20.7465     0.0000    48.0000 </r>
       <r>   -20.4929     0.0000    48.0000 </r>
       <r>   -20.2393     0.0000    48.0000 </r>
       <r>   -19.9857     0.0000    48.0000 </r>
       <r>   -19.7320     3.8582    48.9785 </r>
       <r>   -19.4784     8.4397    51.1188 </r>
       <r>   -19.2248     7.4178    53.0000 </r>
       <r>   -18.9712     0.0000    53.0000 </r>
       <r>   -18.7176     0.1881    53.0477 </r>
       <r>   -18.4640     7.6812    54.9957 </r>
       <r>   -18.2104     0.0169    55.0000 </r>
       <r>   -17.9568     6.6794    56.6939 </r>
       <r>   -17.7032    27.5023    63.6686 </r>
       <r>   -17.4496    31.2465    71.5929 </r>
       <r>   -17.1960    25.2638    77.9999 </r>
       <r>   -16.9424     4.0433    79.0253 </r>
       <r>   -16.6888    31.2554    86.9518 </r>
       <r>   -16.4352     8.0764    89.0000 </r>
       <r>   -16.1816     5.8478    90.4830 </r>
       <r>   -15.9280    17.8111    95.0000 </r>
       <r>   -15.6744     3.4355    95.8713 </r>
       <r>   -15.4208     7.9725    97.8931 </r>
       <r>   -15.1672    18.7735   102.6542 </r>
       <r>   -14.9136    20.5309   107.8609 </r>
       <r>   -14.6600    40.1925   118.0539 </r>
       <r>   -14.4064     7.6738   120.0000 </r>
       <r>   -14.1528     0.0000   120.0000 </r>
       <r>   -13.8991     0.0000   120.0000 </r>
       <r>   -13.6455     0.0000   120.0000 </r>
       <r>   -13.3919     0.0000   120.0000 </r>
       <r>   -13.1383     0.0000   120.0000 </r>
       <r>   -12.8847     0.0000   120.0000 </r>
       <r>   -12.6311     0.0000   120.0000 </r>
       <r>   -12.3775     0.0000   120.0000 </r>
       <r>   -12.1239     0.0000   120.0000 </r>
       <r>   -11.8703     0.0000   120.0000 </r>
       <r>   -11.6167     0.0000   120.0000 </r>
       <r>   -11.3631     0.0000   120.0000 </r>
       <r>   -11.1095     0.0000   120.0000 </r>
       <r>   -10.8559     0.0000   120.0000 </r>
       <r>   -10.6023     0.0000   120.0000 </r>
       <r>   -10.3487     3.6189   120.9178 </r>
       <r>   -10.0951     8.2105   123.0000 </r>
       <r>    -9.8415     8.2641   125.0958 </r>
       <r>    -9.5879    11.5283   128.0194 </r>
       <r>    -9.3343    19.5752   132.9838 </r>
       <r>    -9.0807     0.0657   133.0005 </r>
       <r>    -8.8271     7.8835   134.9998 </r>
       <r>    -8.5735     7.9226   137.0090 </r>
       <r>    -8.3198    11.2185   139.8540 </r>
       <r>    -8.0662    20.5546   145.0668 </r>
       <r>    -7.8126     3.6919   146.0030 </r>
       <r>    -7.5590    23.5047   151.9639 </r>
       <r>    -7.3054     0.1421   152.0000 </r>
       <r>    -7.0518     1.9660   152.4986 </r>
       <r>    -6.7982    32.4699   160.7331 </r>
       <r>    -6.5446     1.0525   161.0000 </r>
       <r>    -6.2910     4.2491   162.0776 </r>
       <r>    -6.0374    41.2553   172.5401 </r>
       <r>    -5.7838    60.9913   188.0078 </r>
       <r>    -5.5302    58.6088   202.8713 </r>
       <r>    -5.2766    13.6962   206.3447 </r>
       <r>    -5.0230    14.4066   209.9983 </r>
       <r>    -4.7694    23.3127   215.9105 </r>
       <r>    -4.5158    21.1706   221.2794 </r>
       <r>    -4.2622    20.7165   226.5332 </r>
       <r>    -4.0086    52.6646   239.8892 </r>
       <r>    -3.7550    47.0099   251.8111 </r>
       <r>    -3.5014    13.0277   255.1150 </r>
       <r>    -3.2478    27.6948   262.1385 </r>
       <r>    -2.9942    29.3741   269.5880 </r>
       <r>    -2.7406    56.8970   284.0173 </r>
       <r>    -2.4869    63.6509   300.1594 </r>
       <r>    -2.2333    46.5228   311.9578 </r>
       <r>    -1.9797    29.1643   319.3540 </r>
       <r>    -1.7261    17.4581   323.7815 </r>
       <r>    -1.4725    32.7159   332.0783 </r>
       <r>    -1.2189     4.3410   333.1793 </r>
       <r>    -0.9653    44.3747   344.4329 </r>
       <r>    -0.7117     2.2362   345.0000 </r>
       <r>    -0.4581     7.4719   346.8949 </r>
       <r>    -0.2045    13.3184   350.2725 </r>
       <r>     0.0491    18.9793   355.0857 </r>
       <r>     0.3027    35.4777   364.0830 </r>
       <r>     0.5563    43.4837   375.1107 </r>
       <r>     0.8099    32.3837   383.3233 </r>
       <r>     1.0635    10.5545   386.0000 </r>
       <r>     1.3171     0.0000   386.0000 </r>
       <r>     1.5707     0.0263   386.0067 </r>
       <r>     1.8243    32.7345   394.3083 </r>
       <r>     2.0779    35.9030   403.4135 </r>
       <r>     2.3315    15.9011   407.4461 </r>
       <r>     2.5851    14.9900   411.2476 </r>
       <r>     2.8387    29.3887   418.7007 </r>
       <r>     3.0923    70.0032   436.4538 </r>
       <r>     3.3460    33.6960   444.9992 </r>
       <r>     3.5996    11.8071   447.9936 </r>
       <r>     3.8532     4.1390   449.0432 </r>
       <r>     4.1068    18.4798   453.7298 </r>
       <r>     4.3604    27.0778   460.5969 </r>
       <r>     4.6140    13.3938   463.9936 </r>
       <r>     4.8676    21.5120   469.4491 </r>
       <r>     5.1212    13.5273   472.8797 </r>
       <r>     5.3748    29.8542   480.4509 </r>
       <r>     5.6284    27.7735   487.4944 </r>
       <r>     5.8820    37.3005   496.9539 </r>
       <r>     6.1356    18.1870   501.5663 </r>
       <r>     6.3892     6.5225   503.2204 </r>
       <r>     6.6428    22.9870   509.0500 </r>
       <r>     6.8964    35.2520   517.9901 </r>
       <r>     7.1500     8.8438   520.2329 </r>
       <r>     7.4036    48.4099   532.5099 </r>
       <r>     7.6572    29.5235   539.9972 </r>
       <r>     7.9108    15.7838   544.0000 </r>
       <r>     8.1644     0.0000   544.0000 </r>
       <r>     8.4180     0.0000   544.0000 </r>
       <r>     8.6716     0.0000   544.0000 </r>
       <r>     8.9252     0.0000   544.0000 </r>
       <r>     9.1789     0.0000   544.0000 </r>
       <r>     9.4325     0.0000   544.0000 </r>
       <r>     9.6861     0.0000   544.0000 </r>
       <r>     9.9397     0.0000   544.0000 </r>
       <r>    10.1933     0.0000   544.0000 </r>
       <r>    10.4469     0.0000   544.0000 </r>
       <r>    10.7005     0.0000   544.0000 </r>
       <r>    10.9541     0.0000   544.0000 </r>
       <r>    11.2077     0.0000   544.0000 </r>
      </set>
     </set>
    </array>
   </total>
  </dos>
 </calculation>
 <structure name="finalpos" >
  <crystal>
   <varray name="basis" >
    <v>      10.15022300       0.00000000       0.00000000 </v>
    <v>      -5.07509751       8.79036713       0.00000000 </v>
    <v>       0.00000000      -0.00005351      34.93840000 </v>
   </varray>
   <i name="volume">   3117.35032185 </i>
   <varray name="rec_basis" >
    <v>       0.09852000       0.05688029       0.00000009 </v>
    <v>       0.00000000       0.11376089       0.00000017 </v>
    <v>       0.00000000       0.00000000       0.02862180 </v>
   </varray>
  </crystal>
  <varray name="positions" >
   <v>       0.16667366       0.00004580       0.61006135 </v>
   <v>       0.16637305       0.50022234       0.60993642 </v>
   <v>       0.66716571       0.00036211       0.60992404 </v>
   <v>       0.66650029       0.49955136       0.60992543 </v>
   <v>       0.33361030       0.33311426       0.60993635 </v>
   <v>       0.33294361       0.83323741       0.60992792 </v>
   <v>       0.83343401       0.33341360       0.61006127 </v>
   <v>       0.83375654       0.83390732       0.60992142 </v>
   <v>       0.00028507       0.16689652       0.61003976 </v>
   <v>       0.99982389       0.66665201       0.61003528 </v>
   <v>       0.50003877       0.16642317       0.61003673 </v>
   <v>       0.50004856       0.66665542       0.60968089 </v>
   <v>       0.16716988       0.16712181       0.57421552 </v>
   <v>       0.16678725       0.66712435       0.57415244 </v>
   <v>       0.66718501       0.16715560       0.57420978 </v>
   <v>       0.66715300       0.66712782       0.57411902 </v>
   <v>       0.16700485       0.16696374       0.64601922 </v>
   <v>       0.16680690       0.66675619       0.64588573 </v>
   <v>       0.66678888       0.16655750       0.64601130 </v>
   <v>       0.66517304       0.66676524       0.64582508 </v>
   <v>       0.16681037       0.00011380       0.71119294 </v>
   <v>       0.16646998       0.49972048       0.71114167 </v>
   <v>       0.66680381       0.00051431       0.71111776 </v>
   <v>       0.66723355       0.50017099       0.71111691 </v>
   <v>       0.16576242       0.00011300       0.50957133 </v>
   <v>       0.16572867       0.50010662       0.50955474 </v>
   <v>       0.66580229       0.00015325       0.50954746 </v>
   <v>       0.66577727       0.50006226       0.50955027 </v>
   <v>       0.33283996       0.99991525       0.57421067 </v>
   <v>       0.33288298       0.49993474       0.57412947 </v>
   <v>       0.83326441       0.00031550       0.57414820 </v>
   <v>       0.83287623       0.49989092       0.57420908 </v>
   <v>       0.33331909       0.99980933       0.64601201 </v>
   <v>       0.33499483       0.50168149       0.64585545 </v>
   <v>       0.83332385       0.00001078       0.64587470 </v>
   <v>       0.83312695       0.50001411       0.64600939 </v>
   <v>       0.33310272       0.33309542       0.71114007 </v>
   <v>       0.33354963       0.83386566       0.71112233 </v>
   <v>       0.83349812       0.33345145       0.71119210 </v>
   <v>       0.83388151       0.83343241       0.71111378 </v>
   <v>       0.33433704       0.33419569       0.50955683 </v>
   <v>       0.33429103       0.83424493       0.50954830 </v>
   <v>       0.83435173       0.33423792       0.50957221 </v>
   <v>       0.83437899       0.83427161       0.50954532 </v>
   <v>       0.00007537       0.33304709       0.57421669 </v>
   <v>       0.00011074       0.83305767       0.57420804 </v>
   <v>       0.50007070       0.33265323       0.57415568 </v>
   <v>       0.50007680       0.83302549       0.57411978 </v>
   <v>       0.00027641       0.33357998       0.64601903 </v>
   <v>       0.99986916       0.83335952       0.64600879 </v>
   <v>       0.50006924       0.33337777       0.64588323 </v>
   <v>       0.50008066       0.83173916       0.64583035 </v>
   <v>       0.99967195       0.16629465       0.71105529 </v>
   <v>       0.00064810       0.66676486       0.71104943 </v>
   <v>       0.50013888       0.16726506       0.71105050 </v>
   <v>       0.50025651       0.66686635       0.71202759 </v>
   <v>       0.49989404       0.16560098       0.50955884 </v>
   <v>       0.49988999       0.66566474       0.50951679 </v>
   <v>       0.99996602       0.16573566       0.50956097 </v>
   <v>       0.99983356       0.66566767       0.50955547 </v>
   <v>       0.16569694       0.16536682       0.69593468 </v>
   <v>       0.16644502       0.66678171       0.69567920 </v>
   <v>       0.66712148       0.16825243       0.69592414 </v>
   <v>       0.67554112       0.66681792       0.69458888 </v>
   <v>       0.16735865       0.16736772       0.52394901 </v>
   <v>       0.16730612       0.66738670       0.52388318 </v>
   <v>       0.66737801       0.16739796       0.52394284 </v>
   <v>       0.66736067       0.66736005       0.52386347 </v>
   <v>       0.33316152       0.00125540       0.69592698 </v>
   <v>       0.32485362       0.49147587       0.69463036 </v>
   <v>       0.83390862       0.00054279       0.69566270 </v>
   <v>       0.83463960       0.49979916       0.69592366 </v>
   <v>       0.33260201       0.99998399       0.52394438 </v>
   <v>       0.33261906       0.49997178       0.52386929 </v>
   <v>       0.83266876       0.00002642       0.52388043 </v>
   <v>       0.83263658       0.49996563       0.52394255 </v>
   <v>       0.99874866       0.33232102       0.69593289 </v>
   <v>       0.00162050       0.83373612       0.69592277 </v>
   <v>       0.50015413       0.33305190       0.69567435 </v>
   <v>       0.50019573       0.84217192       0.69459394 </v>
   <v>       0.00001807       0.33265865       0.52395043 </v>
   <v>       0.00003278       0.83266750       0.52394086 </v>
   <v>       0.50002730       0.33260957       0.52389030 </v>
   <v>       0.50000644       0.83267642       0.52386153 </v>
   <v>       0.99999459       0.99999180       0.34957270 </v>
   <v>       0.99998821       0.49998841       0.34957238 </v>
   <v>       0.49998934       0.99999169       0.34957467 </v>
   <v>       0.49998315       0.49999404       0.34957251 </v>
   <v>       0.00001210       0.99999770       0.44108245 </v>
   <v>       0.99997482       0.49997854       0.44108174 </v>
   <v>       0.49999249       0.00001554       0.44108206 </v>
   <v>       0.49998467       0.49998657       0.44107362 </v>
   <v>       0.33332534       0.16666184       0.39483890 </v>
   <v>       0.33331961       0.66665857       0.39483993 </v>
   <v>       0.83332403       0.16665671       0.39483985 </v>
   <v>       0.83332584       0.66665850       0.39483857 </v>
   <v>       0.31843277       0.32453548       0.36215970 </v>
   <v>       0.31843517       0.82452880       0.36215958 </v>
   <v>       0.81843275       0.32453018       0.36215757 </v>
   <v>       0.81843284       0.82453470       0.36216059 </v>
   <v>       0.17545013       0.49389303       0.36215893 </v>
   <v>       0.17545319       0.99389465       0.36215806 </v>
   <v>       0.67544118       0.49389381       0.36215869 </v>
   <v>       0.67544929       0.99389314       0.36216122 </v>
   <v>       0.00609607       0.18155191       0.36215943 </v>
   <v>       0.00609398       0.68154836       0.36215959 </v>
   <v>       0.50609414       0.18155409       0.36215993 </v>
   <v>       0.50609399       0.68155570       0.36216219 </v>
   <v>       0.00626683       0.32479283       0.42714057 </v>
   <v>       0.00626870       0.82479255       0.42713983 </v>
   <v>       0.50627132       0.32479681       0.42714413 </v>
   <v>       0.50627029       0.82480468       0.42714686 </v>
   <v>       0.17520082       0.18147664       0.42714127 </v>
   <v>       0.17518667       0.68146518       0.42714621 </v>
   <v>       0.67519908       0.18147799       0.42714130 </v>
   <v>       0.67519313       0.68147032       0.42714833 </v>
   <v>       0.31851261       0.49371756       0.42714538 </v>
   <v>       0.31851113       0.99371486       0.42714172 </v>
   <v>       0.81850992       0.49371575       0.42714044 </v>
   <v>       0.81852092       0.99371449       0.42714790 </v>
   <v>       0.16666511       0.33333267       0.39461729 </v>
   <v>       0.16666352       0.83333313       0.39461691 </v>
   <v>       0.66666580       0.33333261       0.39461699 </v>
   <v>       0.66666717       0.83333384       0.39461754 </v>
   <v>       0.50054075       0.66707765       0.74098188 </v>
  </varray>
  <varray name="selective"  type="logical" >
   <v type="logical" >  F  F  F </v>
   <v type="logical" >  F  F  F </v>
   <v type="logical" >  F  F  F </v>
   <v type="logical" >  F  F  F </v>
   <v type="logical" >  F  F  F </v>
   <v type="logical" >  F  F  F </v>
   <v type="logical" >  F  F  F </v>
   <v type="logical" >  F  F  F </v>
   <v type="logical" >  F  F  F </v>
   <v type="logical" >  F  F  F </v>
   <v type="logical" >  F  F  F </v>
   <v type="logical" >  F  F  F </v>
   <v type="logical" >  F  F  F </v>
   <v type="logical" >  F  F  F </v>
   <v type="logical" >  F  F  F </v>
   <v type="logical" >  F  F  F </v>
   <v type="logical" >  F  F  F </v>
   <v type="logical" >  F  F  F </v>
   <v type="logical" >  F  F  F </v>
   <v type="logical" >  F  F  F </v>
   <v type="logical" >  F  F  F </v>
   <v type="logical" >  F  F  F </v>
   <v type="logical" >  F  F  F </v>
   <v type="logical" >  F  F  F </v>
   <v type="logical" >  F  F  F </v>
   <v type="logical" >  F  F  F </v>
   <v type="logical" >  F  F  F </v>
   <v type="logical" >  F  F  F </v>
   <v type="logical" >  F  F  F </v>
   <v type="logical" >  F  F  F </v>
   <v type="logical" >  F  F  F </v>
   <v type="logical" >  F  F  F </v>
   <v type="logical" >  F  F  F </v>
   <v type="logical" >  F  F  F </v>
   <v type="logical" >  F  F  F </v>
   <v type="logical" >  F  F  F </v>
   <v type="logical" >  F  F  F </v>
   <v type="logical" >  F  F  F </v>
   <v type="logical" >  F  F  F </v>
   <v type="logical" >  F  F  F </v>
   <v type="logical" >  F  F  F </v>
   <v type="logical" >  F  F  F </v>
   <v type="logical" >  F  F  F </v>
   <v type="logical" >  F  F  F </v>
   <v type="logical" >  F  F  F </v>
   <v type="logical" >  F  F  F </v>
   <v type="logical" >  F  F  F </v>
   <v type="logical" >  F  F  F </v>
   <v type="logical" >  F  F  F </v>
   <v type="logical" >  F  F  F </v>
   <v type="logical" >  F  F  F </v>
   <v type="logical" >  F  F  F </v>
   <v type="logical" >  F  F  F </v>
   <v type="logical" >  F  F  F </v>
   <v type="logical" >  F  F  F </v>
   <v type="logical" >  F  F  F </v>
   <v type="logical" >  F  F  F </v>
   <v type="logical" >  F  F  F </v>
   <v type="logical" >  F  F  F </v>
   <v type="logical" >  F  F  F </v>
   <v type="logical" >  F  F  F </v>
   <v type="logical" >  F  F  F </v>
   <v type="logical" >  F  F  F </v>
   <v type="logical" >  F  F  F </v>
   <v type="logical" >  F  F  F </v>
   <v type="logical" >  F  F  F </v>
   <v type="logical" >  F  F  F </v>
   <v type="logical" >  F  F  F </v>
   <v type="logical" >  F  F  F </v>
   <v type="logical" >  F  F  F </v>
   <v type="logical" >  F  F  F </v>
   <v type="logical" >  F  F  F </v>
   <v type="logical" >  F  F  F </v>
   <v type="logical" >  F  F  F </v>
   <v type="logical" >  F  F  F </v>
   <v type="logical" >  F  F  F </v>
   <v type="logical" >  F  F  F </v>
   <v type="logical" >  F  F  F </v>
   <v type="logical" >  F  F  F </v>
   <v type="logical" >  F  F  F </v>
   <v type="logical" >  F  F  F </v>
   <v type="logical" >  F  F  F </v>
   <v type="logical" >  F  F  F </v>
   <v type="logical" >  F  F  F </v>
   <v type="logical" >  F  F  F </v>
   <v type="logical" >  F  F  F </v>
   <v type="logical" >  F  F  F </v>
   <v type="logical" >  F  F  F </v>
   <v type="logical" >  F  F  F </v>
   <v type="logical" >  F  F  F </v>
   <v type="logical" >  F  F  F </v>
   <v type="logical" >  F  F  F </v>
   <v type="logical" >  F  F  F </v>
   <v type="logical" >  F  F  F </v>
   <v type="logical" >  F  F  F </v>
   <v type="logical" >  F  F  F </v>
   <v type="logical" >  F  F  F </v>
   <v type="logical" >  F  F  F </v>
   <v type="logical" >  F  F  F </v>
   <v type="logical" >  F  F  F </v>
   <v type="logical" >  F  F  F </v>
   <v type="logical" >  F  F  F </v>
   <v type="logical" >  F  F  F </v>
   <v type="logical" >  F  F  F </v>
   <v type="logical" >  F  F  F </v>
   <v type="logical" >  F  F  F </v>
   <v type="logical" >  F  F  F </v>
   <v type="logical" >  F  F  F </v>
   <v type="logical" >  F  F  F </v>
   <v type="logical" >  F  F  F </v>
   <v type="logical" >  F  F  F </v>
   <v type="logical" >  F  F  F </v>
   <v type="logical" >  F  F  F </v>
   <v type="logical" >  F  F  F </v>
   <v type="logical" >  F  F  F </v>
   <v type="logical" >  F  F  F </v>
   <v type="logical" >  F  F  F </v>
   <v type="logical" >  F  F  F </v>
   <v type="logical" >  F  F  F </v>
   <v type="logical" >  F  F  F </v>
   <v type="logical" >  F  F  F </v>
   <v type="logical" >  F  F  F </v>
   <v type="logical" >  F  F  F </v>
   <v type="logical" >  F  F  F </v>
   <v type="logical" >  T  T  T </v>
  </varray>
  <nose>
   <v>      -3.00000000       0.00000000       0.00010000       0.00010000 </v>
  </nose>
 </structure>
</modeling>
