 vasp.6.1.2 22Jul20 (build Aug 13 2020 05:42:33) complex                        
  
 executed on             LinuxIFC date 2024.09.26  06:11:06
 running on   32 total cores
 distrk:  each k-point on   32 cores,    1 groups
 distr:  one band on NCORE=   1 cores,   32 groups


--------------------------------------------------------------------------------------------------------


 INCAR:
 POTCAR:    PAW_PBE Mo_sv 02Feb2006               
 POTCAR:    PAW_PBE N 08Apr2002                   
 POTCAR:    PAW_PBE Si 05Jan2001                  
 POTCAR:    PAW_PBE Ni 02Aug2007                  
 POTCAR:    PAW_PBE O 08Apr2002                   
 POTCAR:    PAW_PBE Te 08Apr2002                  
 POTCAR:    PAW_PBE H 15Jun2001                   
 -----------------------------------------------------------------------------
|                                                                             |
|           W    W    AA    RRRRR   N    N  II  N    N   GGGG   !!!           |
|           W    W   A  A   R    R  NN   N  II  NN   N  G    G  !!!           |
|           W    W  A    A  R    R  N N  N  II  N N  N  G       !!!           |
|           W WW W  AAAAAA  RRRRR   N  N N  II  N  N N  G  GGG   !            |
|           WW  WW  A    A  R   R   N   NN  II  N   NN  G    G                |
|           W    W  A    A  R    R  N    N  II  N    N   GGGG   !!!           |
|                                                                             |
|     You use a magnetic or noncollinear calculation, but did not specify     |
|     the initial magnetic moment with the MAGMOM tag. Note that a            |
|     default of 1 will be used for all atoms. This ferromagnetic setup       |
|     may break the symmetry of the crystal, in particular it may rule        |
|     out finding an antiferromagnetic solution. Thence, we recommend         |
|     setting the initial magnetic moment manually or verifying carefully     |
|     that this magnetic setup is desired.                                    |
|                                                                             |
 -----------------------------------------------------------------------------

 -----------------------------------------------------------------------------
|                                                                             |
|           W    W    AA    RRRRR   N    N  II  N    N   GGGG   !!!           |
|           W    W   A  A   R    R  NN   N  II  NN   N  G    G  !!!           |
|           W    W  A    A  R    R  N N  N  II  N N  N  G       !!!           |
|           W WW W  AAAAAA  RRRRR   N  N N  II  N  N N  G  GGG   !            |
|           WW  WW  A    A  R   R   N   NN  II  N   NN  G    G                |
|           W    W  A    A  R    R  N    N  II  N    N   GGGG   !!!           |
|                                                                             |
|     For optimal performance we recommend to set                             |
|       NCORE = 4 - approx SQRT(number of cores).                             |
|     NCORE specifies how many cores store one orbital (NPAR=cpu/NCORE).      |
|     This setting can greatly improve the performance of VASP for DFT.       |
|     The default, NCORE=1 might be grossly inefficient on modern             |
|     multi-core architectures or massively parallel machines. Do your        |
|     own testing!!!!                                                         |
|     Unfortunately you need to use the default for GW and RPA                |
|     calculations (for HF NCORE is supported but not extensively tested      |
|     yet).                                                                   |
|                                                                             |
 -----------------------------------------------------------------------------

 POTCAR:    PAW_PBE Mo_sv 02Feb2006               
   SHA256 =  2731df97e41766cc617548c5a8267718fdef1f509ac6bafa01e745abea2bdfaa Mo_sv/POTCAR          
   COPYR  = (c) Copyright 02Feb2006 Georg Kresse                                                    
   COPYR  = This file is part of the software VASP. Any use, copying, and all other rights are regul
   COPYR  = If you do not have a valid VASP license, you may not use, copy or distribute this file. 
   VRHFIN =Mo: 4p5s4d                                                                               
   LEXCH  = PE                                                                                      
   EATOM  =  1862.2866 eV,  136.8742 Ry                                                             
                                                                                                    
   TITEL  = PAW_PBE Mo_sv 02Feb2006                                                                 
   LULTRA =        F    use ultrasoft PP ?                                                          
   IUNSCR =        1    unscreen: 0-lin 1-nonlin 2-no                                               
   RPACOR =    2.200    partial core radius                                                         
   POMASS =   95.940; ZVAL   =   14.000    mass and valenz                                          
   RCORE  =    2.500    outmost cutoff radius                                                       
   RWIGS  =    2.750; RWIGS  =    1.455    wigner-seitz radius (au A)                               
   ENMAX  =  242.676; ENMIN  =  182.007 eV                                                          
   ICORE  =        3    local potential                                                             
   LCOR   =        T    correct aug charges                                                         
   LPAW   =        T    paw PP                                                                      
   EAUG   =  446.014                                                                                
   DEXC   =    0.000                                                                                
   RMAX   =    2.563    core radius for proj-oper                                                   
   RAUG   =    1.300    factor for augmentation sphere                                              
   RDEP   =    2.641    radius for radial grids                                                     
   RDEPT  =    2.031    core radius for aug-charge                                                  
                                                                                                    
   Atomic configuration                                                                             
   11 entries                                                                                       
     n  l   j            E        occ.                                                              
     1  0  0.50    -19819.0341   2.0000                                                             
     2  0  0.50     -2799.0127   2.0000                                                             
     2  1  1.50     -2502.0276   6.0000                                                             
     3  0  0.50      -476.4449   2.0000                                                             
     3  1  1.50      -379.1496   6.0000                                                             
     3  2  2.50      -220.9367  10.0000                                                             
     4  0  0.50       -64.3378   2.0000                                                             
     5  0  0.50        -4.0862   1.0000                                                             
     4  1  1.50       -38.4773   6.0000                                                             
     4  2  2.50        -3.7535   5.0000                                                             
     4  3  2.50        -1.3606   0.0000                                                             
   Description                                                                                      
     l       E           TYP  RCUT    TYP  RCUT                                                     
     0    -64.3377829     23  2.100                                                                 
     0     -4.0861640     23  2.400                                                                 
     1    -38.4772993     23  2.100                                                                 
     1     13.6058260     23  2.100                                                                 
     2     -3.7534941     23  2.400                                                                 
     2     -5.1140767     23  2.400                                                                 
     3     -4.0817478     23  2.500                                                                 
  local pseudopotential read in
  partial core-charges read in
  partial kinetic energy density read in
  atomic valenz-charges read in
  non local Contribution for L=           0  read in
    real space projection operators read in
  non local Contribution for L=           0  read in
    real space projection operators read in
  non local Contribution for L=           1  read in
    real space projection operators read in
  non local Contribution for L=           1  read in
    real space projection operators read in
  non local Contribution for L=           2  read in
    real space projection operators read in
  non local Contribution for L=           2  read in
    real space projection operators read in
    PAW grid and wavefunctions read in
 
   number of l-projection  operators is LMAX  =           6
   number of lm-projection operators is LMMAX =          18
 
 POTCAR:    PAW_PBE N 08Apr2002                   
   SHA256 =  e053789ff3a61a86a1b75d8a110fcc91f86041011e7b0817c7c99e4e8a6349d7 N/POTCAR              
   COPYR  = (c) Copyright 08Apr2002 Georg Kresse                                                    
   COPYR  = This file is part of the software VASP. Any use, copying, and all other rights are regul
   COPYR  = If you do not have a valid VASP license, you may not use, copy or distribute this file. 
   VRHFIN =N: s2p3                                                                                  
   LEXCH  = PE                                                                                      
   EATOM  =   264.5486 eV,   19.4438 Ry                                                             
                                                                                                    
   TITEL  = PAW_PBE N 08Apr2002                                                                     
   LULTRA =        F    use ultrasoft PP ?                                                          
   IUNSCR =        1    unscreen: 0-lin 1-nonlin 2-no                                               
   RPACOR =    1.200    partial core radius                                                         
   POMASS =   14.001; ZVAL   =    5.000    mass and valenz                                          
   RCORE  =    1.500    outmost cutoff radius                                                       
   RWIGS  =    1.400; RWIGS  =    0.741    wigner-seitz radius (au A)                               
   ENMAX  =  400.000; ENMIN  =  300.000 eV                                                          
   ICORE  =        2    local potential                                                             
   LCOR   =        T    correct aug charges                                                         
   LPAW   =        T    paw PP                                                                      
   EAUG   =  627.112                                                                                
   DEXC   =    0.000                                                                                
   RMAX   =    1.529    core radius for proj-oper                                                   
   RAUG   =    1.300    factor for augmentation sphere                                              
   RDEP   =    1.514    radius for radial grids                                                     
   RDEPT  =    1.338    core radius for aug-charge                                                  
                                                                                                    
   Atomic configuration                                                                             
    4 entries                                                                                       
     n  l   j            E        occ.                                                              
     1  0  0.50      -384.7179   2.0000                                                             
     2  0  0.50       -18.5828   2.0000                                                             
     2  1  0.50        -7.0898   3.0000                                                             
     3  2  1.50        -6.8029   0.0000                                                             
   Description                                                                                      
     l       E           TYP  RCUT    TYP  RCUT                                                     
     0    -18.5828119     23  1.200                                                                 
     0    -13.5018863     23  1.200                                                                 
     1     -7.0897853     23  1.500                                                                 
     1      9.5240782     23  1.500                                                                 
     2     -6.8029130      7  1.500                                                                 
  local pseudopotential read in
  partial core-charges read in
  partial kinetic energy density read in
  atomic valenz-charges read in
  non local Contribution for L=           0  read in
    real space projection operators read in
  non local Contribution for L=           0  read in
    real space projection operators read in
  non local Contribution for L=           1  read in
    real space projection operators read in
  non local Contribution for L=           1  read in
    real space projection operators read in
    PAW grid and wavefunctions read in
 
   number of l-projection  operators is LMAX  =           4
   number of lm-projection operators is LMMAX =           8
 
 POTCAR:    PAW_PBE Si 05Jan2001                  
   SHA256 =  79d9987ad8750f624c4d6acb2a16d13abf6a777132adc04dc6c8399be72b42bb Si/POTCAR             
   COPYR  = (c) Copyright 05Jan2001 Georg Kresse                                                    
   COPYR  = This file is part of the software VASP. Any use, copying, and all other rights are regul
   COPYR  = If you do not have a valid VASP license, you may not use, copy or distribute this file. 
   VRHFIN =Si: s2p2                                                                                 
   LEXCH  = PE                                                                                      
   EATOM  =   103.0669 eV,    7.5752 Ry                                                             
                                                                                                    
   TITEL  = PAW_PBE Si 05Jan2001                                                                    
   LULTRA =        F    use ultrasoft PP ?                                                          
   IUNSCR =        1    unscreen: 0-lin 1-nonlin 2-no                                               
   RPACOR =    1.500    partial core radius                                                         
   POMASS =   28.085; ZVAL   =    4.000    mass and valenz                                          
   RCORE  =    1.900    outmost cutoff radius                                                       
   RWIGS  =    2.480; RWIGS  =    1.312    wigner-seitz radius (au A)                               
   ENMAX  =  245.345; ENMIN  =  184.009 eV                                                          
   ICORE  =        2    local potential                                                             
   LCOR   =        T    correct aug charges                                                         
   LPAW   =        T    paw PP                                                                      
   EAUG   =  322.069                                                                                
   DEXC   =    0.000                                                                                
   RMAX   =    1.950    core radius for proj-oper                                                   
   RAUG   =    1.300    factor for augmentation sphere                                              
   RDEP   =    1.993    radius for radial grids                                                     
   RDEPT  =    1.837    core radius for aug-charge                                                  
                                                                                                    
   Atomic configuration                                                                             
    6 entries                                                                                       
     n  l   j            E        occ.                                                              
     1  0  0.50     -1785.8828   2.0000                                                             
     2  0  0.50      -139.4969   2.0000                                                             
     2  1  1.50       -95.5546   6.0000                                                             
     3  0  0.50       -10.8127   2.0000                                                             
     3  1  0.50        -4.0811   2.0000                                                             
     3  2  1.50        -4.0817   0.0000                                                             
   Description                                                                                      
     l       E           TYP  RCUT    TYP  RCUT                                                     
     0    -10.8127223     23  1.900                                                                 
     0     -7.6451159     23  1.900                                                                 
     1     -4.0811372     23  1.900                                                                 
     1      2.4879257     23  1.900                                                                 
     2     -4.0817478      7  1.900                                                                 
  local pseudopotential read in
  partial core-charges read in
  partial kinetic energy density read in
  atomic valenz-charges read in
  non local Contribution for L=           0  read in
    real space projection operators read in
  non local Contribution for L=           0  read in
    real space projection operators read in
  non local Contribution for L=           1  read in
    real space projection operators read in
  non local Contribution for L=           1  read in
    real space projection operators read in
    PAW grid and wavefunctions read in
 
   number of l-projection  operators is LMAX  =           4
   number of lm-projection operators is LMMAX =           8
 
 POTCAR:    PAW_PBE Ni 02Aug2007                  
   SHA256 =  0534bc51ca8003dfef23f56753fef9fdd3e22eac8d719fccacb59f3e6b7a69c7 Ni/POTCAR             
   COPYR  = (c) Copyright 02Aug2007 Georg Kresse                                                    
   COPYR  = This file is part of the software VASP. Any use, copying, and all other rights are regul
   COPYR  = If you do not have a valid VASP license, you may not use, copy or distribute this file. 
   VRHFIN =Ni:                                                                                      
   LEXCH  = PE                                                                                      
   EATOM  =  1077.6739 eV,   79.2068 Ry                                                             
                                                                                                    
   TITEL  = PAW_PBE Ni 02Aug2007                                                                    
   LULTRA =        F    use ultrasoft PP ?                                                          
   IUNSCR =        1    unscreen: 0-lin 1-nonlin 2-no                                               
   RPACOR =    2.000    partial core radius                                                         
   POMASS =   58.690; ZVAL   =   10.000    mass and valenz                                          
   RCORE  =    2.300    outmost cutoff radius                                                       
   RWIGS  =    2.430; RWIGS  =    1.286    wigner-seitz radius (au A)                               
   ENMAX  =  269.532; ENMIN  =  202.149 eV                                                          
   RCLOC  =    1.201    cutoff for local pot                                                        
   LCOR   =        T    correct aug charges                                                         
   LPAW   =        T    paw PP                                                                      
   EAUG   =  544.565                                                                                
   DEXC   =    0.000                                                                                
   RMAX   =    2.357    core radius for proj-oper                                                   
   RAUG   =    1.300    factor for augmentation sphere                                              
   RDEP   =    2.390    radius for radial grids                                                     
   RDEPT  =    1.838    core radius for aug-charge                                                  
                                                                                                    
   Atomic configuration                                                                             
    9 entries                                                                                       
     n  l   j            E        occ.                                                              
     1  0  0.50     -8206.4253   2.0000                                                             
     2  0  0.50      -976.1748   2.0000                                                             
     2  1  1.50      -839.0571   6.0000                                                             
     3  0  0.50      -105.9991   2.0000                                                             
     3  1  1.50       -66.4603   6.0000                                                             
     3  2  2.50        -4.6458   9.0000                                                             
     4  0  0.50        -4.4926   1.0000                                                             
     4  1  1.50        -4.0817   0.0000                                                             
     4  3  2.50        -1.3606   0.0000                                                             
   Description                                                                                      
     l       E           TYP  RCUT    TYP  RCUT                                                     
     2     -4.6457903     23  2.300                                                                 
     2     -6.0063729     23  2.300                                                                 
     0     -4.4925590     23  2.300                                                                 
     0      5.0102601     23  2.300                                                                 
     1     -2.7211652     23  2.300                                                                 
     1     16.5183231     23  2.300                                                                 
  local pseudopotential read in
  partial core-charges read in
  partial kinetic energy density read in
  atomic valenz-charges read in
  non local Contribution for L=           2  read in
    real space projection operators read in
  non local Contribution for L=           2  read in
    real space projection operators read in
  non local Contribution for L=           0  read in
    real space projection operators read in
  non local Contribution for L=           0  read in
    real space projection operators read in
  non local Contribution for L=           1  read in
    real space projection operators read in
  non local Contribution for L=           1  read in
    real space projection operators read in
    PAW grid and wavefunctions read in
 
   number of l-projection  operators is LMAX  =           6
   number of lm-projection operators is LMMAX =          18
 
 POTCAR:    PAW_PBE O 08Apr2002                   
   SHA256 =  818f92134a0a090dccd8ba1447fa70422a3b330e708bb4f08108d8ae51209ddf O/POTCAR              
   COPYR  = (c) Copyright 08Apr2002 Georg Kresse                                                    
   COPYR  = This file is part of the software VASP. Any use, copying, and all other rights are regul
   COPYR  = If you do not have a valid VASP license, you may not use, copy or distribute this file. 
   VRHFIN =O: s2p4                                                                                  
   LEXCH  = PE                                                                                      
   EATOM  =   432.3788 eV,   31.7789 Ry                                                             
                                                                                                    
   TITEL  = PAW_PBE O 08Apr2002                                                                     
   LULTRA =        F    use ultrasoft PP ?                                                          
   IUNSCR =        1    unscreen: 0-lin 1-nonlin 2-no                                               
   RPACOR =    1.200    partial core radius                                                         
   POMASS =   16.000; ZVAL   =    6.000    mass and valenz                                          
   RCORE  =    1.520    outmost cutoff radius                                                       
   RWIGS  =    1.550; RWIGS  =    0.820    wigner-seitz radius (au A)                               
   ENMAX  =  400.000; ENMIN  =  300.000 eV                                                          
   ICORE  =        2    local potential                                                             
   LCOR   =        T    correct aug charges                                                         
   LPAW   =        T    paw PP                                                                      
   EAUG   =  605.392                                                                                
   DEXC   =    0.000                                                                                
   RMAX   =    1.553    core radius for proj-oper                                                   
   RAUG   =    1.300    factor for augmentation sphere                                              
   RDEP   =    1.550    radius for radial grids                                                     
   RDEPT  =    1.329    core radius for aug-charge                                                  
                                                                                                    
   Atomic configuration                                                                             
    4 entries                                                                                       
     n  l   j            E        occ.                                                              
     1  0  0.50      -514.6923   2.0000                                                             
     2  0  0.50       -23.9615   2.0000                                                             
     2  1  0.50        -9.0305   4.0000                                                             
     3  2  1.50        -9.5241   0.0000                                                             
   Description                                                                                      
     l       E           TYP  RCUT    TYP  RCUT                                                     
     0    -23.9615318     23  1.200                                                                 
     0     -9.5240782     23  1.200                                                                 
     1     -9.0304911     23  1.520                                                                 
     1      8.1634956     23  1.520                                                                 
     2     -9.5240782      7  1.500                                                                 
  local pseudopotential read in
  partial core-charges read in
  partial kinetic energy density read in
  kinetic energy density of atom read in
  atomic valenz-charges read in
  non local Contribution for L=           0  read in
    real space projection operators read in
  non local Contribution for L=           0  read in
    real space projection operators read in
  non local Contribution for L=           1  read in
    real space projection operators read in
  non local Contribution for L=           1  read in
    real space projection operators read in
    PAW grid and wavefunctions read in
 
   number of l-projection  operators is LMAX  =           4
   number of lm-projection operators is LMMAX =           8
 
 POTCAR:    PAW_PBE Te 08Apr2002                  
   SHA256 =  e13b0861f25acb1fe6cdc17458a3647985498b67a429eb77ddc1eac05a1775b1 Te/POTCAR             
   COPYR  = (c) Copyright 08Apr2002 Georg Kresse                                                    
   COPYR  = This file is part of the software VASP. Any use, copying, and all other rights are regul
   COPYR  = If you do not have a valid VASP license, you may not use, copy or distribute this file. 
   VRHFIN =Te: s2p4                                                                                 
   LEXCH  = PE                                                                                      
   EATOM  =   223.2721 eV,   16.4100 Ry                                                             
                                                                                                    
   TITEL  = PAW_PBE Te 08Apr2002                                                                    
   LULTRA =        F    use ultrasoft PP ?                                                          
   IUNSCR =        1    unscreen: 0-lin 1-nonlin 2-no                                               
   RPACOR =    2.200    partial core radius                                                         
   POMASS =  127.600; ZVAL   =    6.000    mass and valenz                                          
   RCORE  =    2.300    outmost cutoff radius                                                       
   RWIGS  =    2.900; RWIGS  =    1.535    wigner-seitz radius (au A)                               
   ENMAX  =  174.982; ENMIN  =  131.236 eV                                                          
   ICORE  =        3    local potential                                                             
   LCOR   =        T    correct aug charges                                                         
   LPAW   =        T    paw PP                                                                      
   EAUG   =  368.792                                                                                
   DEXC   =    0.000                                                                                
   RMAX   =    2.345    core radius for proj-oper                                                   
   RAUG   =    1.300    factor for augmentation sphere                                              
   RDEP   =    2.397    radius for radial grids                                                     
   RDEPT  =    2.174    core radius for aug-charge                                                  
                                                                                                    
   Atomic configuration                                                                             
   13 entries                                                                                       
     n  l   j            E        occ.                                                              
     1  0  0.50    -31621.2075   2.0000                                                             
     2  0  0.50     -4848.7941   2.0000                                                             
     2  1  1.50     -4352.1960   6.0000                                                             
     3  0  0.50      -964.9612   2.0000                                                             
     3  1  1.50      -803.6179   6.0000                                                             
     3  2  2.50      -559.8710  10.0000                                                             
     4  0  0.50      -164.3522   2.0000                                                             
     4  1  1.50      -114.3756   6.0000                                                             
     4  2  2.50       -41.6483  10.0000                                                             
     5  0  0.50       -15.1072   2.0000                                                             
     5  1  0.50        -5.9526   4.0000                                                             
     5  2  1.50        -5.4423   0.0000                                                             
     4  3  2.50        -5.4423   0.0000                                                             
   Description                                                                                      
     l       E           TYP  RCUT    TYP  RCUT                                                     
     0    -15.1072389     23  2.300                                                                 
     0    -16.4678215     23  2.300                                                                 
     1     -5.9526306     23  2.300                                                                 
     1     -2.4873968     23  2.300                                                                 
     2     -5.4423304     23  2.300                                                                 
     3     -1.3605826     23  2.300                                                                 
  local pseudopotential read in
  partial core-charges read in
  partial kinetic energy density read in
  atomic valenz-charges read in
  non local Contribution for L=           0  read in
    real space projection operators read in
  non local Contribution for L=           0  read in
    real space projection operators read in
  non local Contribution for L=           1  read in
    real space projection operators read in
  non local Contribution for L=           1  read in
    real space projection operators read in
  non local Contribution for L=           2  read in
    real space projection operators read in
    PAW grid and wavefunctions read in
 
   number of l-projection  operators is LMAX  =           5
   number of lm-projection operators is LMMAX =          13
 
 POTCAR:    PAW_PBE H 15Jun2001                   
   SHA256 =  030f79b5d3ab3cf0e668861823c8fb652ff669f3e15e46930bd03bfd63a607b6 H/POTCAR              
   COPYR  = (c) Copyright 15Jun2001 Georg Kresse                                                    
   COPYR  = This file is part of the software VASP. Any use, copying, and all other rights are regul
   COPYR  = If you do not have a valid VASP license, you may not use, copy or distribute this file. 
   VRHFIN =H: ultrasoft test                                                                        
   LEXCH  = PE                                                                                      
   EATOM  =    12.4884 eV,    0.9179 Ry                                                             
                                                                                                    
   TITEL  = PAW_PBE H 15Jun2001                                                                     
   LULTRA =        F    use ultrasoft PP ?                                                          
   IUNSCR =        0    unscreen: 0-lin 1-nonlin 2-no                                               
   RPACOR =    0.000    partial core radius                                                         
   POMASS =    1.000; ZVAL   =    1.000    mass and valenz                                          
   RCORE  =    1.100    outmost cutoff radius                                                       
   RWIGS  =    0.700; RWIGS  =    0.370    wigner-seitz radius (au A)                               
   ENMAX  =  250.000; ENMIN  =  200.000 eV                                                          
   RCLOC  =    0.701    cutoff for local pot                                                        
   LCOR   =        T    correct aug charges                                                         
   LPAW   =        T    paw PP                                                                      
   EAUG   =  400.000                                                                                
   RMAX   =    1.123    core radius for proj-oper                                                   
   RAUG   =    1.200    factor for augmentation sphere                                              
   RDEP   =    1.112    radius for radial grids                                                     
   RDEPT  =    0.926    core radius for aug-charge                                                  
                                                                                                    
   Atomic configuration                                                                             
    2 entries                                                                                       
     n  l   j            E        occ.                                                              
     1  0  0.50        -6.4927   1.0000                                                             
     2  1  0.50        -3.4015   0.0000                                                             
   Description                                                                                      
     l       E           TYP  RCUT    TYP  RCUT                                                     
     0     -6.4927494     23  1.100                                                                 
     0      6.8029130     23  1.100                                                                 
     1     -4.0817478     23  1.100                                                                 
  local pseudopotential read in
  atomic valenz-charges read in
  non local Contribution for L=           0  read in
    real space projection operators read in
  non local Contribution for L=           0  read in
    real space projection operators read in
  non local Contribution for L=           1  read in
    real space projection operators read in
    PAW grid and wavefunctions read in
 
   number of l-projection  operators is LMAX  =           3
   number of lm-projection operators is LMMAX =           5
 
 Optimization of the real space projectors (new method)

 maximal supplied QI-value         = 15.12
 optimisation between [QCUT,QGAM] = [ 11.64, 23.28] = [ 37.95,151.78] Ry 
 Optimized for a Real-space Cutoff    1.49 Angstroem

   l    n(q)    QCUT    max X(q) W(low)/X(q) W(high)/X(q)  e(spline) 
   0     10    11.641     3.559    0.16E-04    0.28E-04    0.20E-06
   0     10    11.641    20.730    0.39E-04    0.26E-04    0.22E-06
   1     10    11.641     3.279    0.77E-06    0.52E-05    0.27E-07
   1     10    11.641     4.693    0.12E-03    0.32E-04    0.29E-06
   2      9    11.641    67.616    0.38E-03    0.20E-03    0.10E-05
   2      9    11.641    62.420    0.39E-03    0.20E-03    0.10E-05
 Optimization of the real space projectors (new method)

 maximal supplied QI-value         = 25.13
 optimisation between [QCUT,QGAM] = [ 11.56, 23.12] = [ 37.43,149.72] Ry 
 Optimized for a Real-space Cutoff    1.25 Angstroem

   l    n(q)    QCUT    max X(q) W(low)/X(q) W(high)/X(q)  e(spline) 
   0      9    11.561    79.467    0.52E-04    0.16E-03    0.37E-06
   0      9    11.561    66.151    0.51E-04    0.16E-03    0.37E-06
   1      8    11.561    18.886    0.46E-03    0.28E-03    0.80E-06
   1      8    11.561    13.488    0.47E-03    0.29E-03    0.82E-06
 Optimization of the real space projectors (new method)

 maximal supplied QI-value         = 19.84
 optimisation between [QCUT,QGAM] = [ 11.51, 23.22] = [ 37.09,150.92] Ry 
 Optimized for a Real-space Cutoff    1.08 Angstroem

   l    n(q)    QCUT    max X(q) W(low)/X(q) W(high)/X(q)  e(spline) 
   0      7    11.508   159.560    0.43E-03    0.41E-03    0.89E-07
   0      7    11.508   115.863    0.42E-03    0.41E-03    0.87E-07
   1      7    11.508    88.339    0.49E-03    0.70E-04    0.69E-07
   1      7    11.508    48.592    0.48E-03    0.68E-04    0.67E-07
 Optimization of the real space projectors (new method)

 maximal supplied QI-value         = 16.25
 optimisation between [QCUT,QGAM] = [ 11.54, 23.24] = [ 37.28,151.24] Ry 
 Optimized for a Real-space Cutoff    1.36 Angstroem

   l    n(q)    QCUT    max X(q) W(low)/X(q) W(high)/X(q)  e(spline) 
   2      9    11.539    60.317    0.20E-03    0.26E-03    0.17E-06
   2      9    11.539    55.921    0.20E-03    0.27E-03    0.17E-06
   0      9    11.539    51.690    0.10E-03    0.69E-04    0.23E-06
   0      9    11.539    30.015    0.94E-04    0.62E-04    0.21E-06
   1      9    11.539    18.849    0.35E-03    0.20E-03    0.11E-06
   1      9    11.539    14.624    0.29E-03    0.17E-03    0.93E-07
 Optimization of the real space projectors (new method)

 maximal supplied QI-value         = 24.76
 optimisation between [QCUT,QGAM] = [ 11.64, 23.27] = [ 37.91,151.63] Ry 
 Optimized for a Real-space Cutoff    1.04 Angstroem

   l    n(q)    QCUT    max X(q) W(low)/X(q) W(high)/X(q)  e(spline) 
   0      7    11.635    20.381    0.14E-03    0.49E-03    0.18E-06
   0      7    11.635    15.268    0.16E-03    0.52E-03    0.19E-06
   1      7    11.635     5.964    0.30E-03    0.44E-03    0.22E-06
   1      7    11.635     5.382    0.27E-03    0.34E-03    0.19E-06
 Optimization of the real space projectors (new method)

 maximal supplied QI-value         = 16.25
 optimisation between [QCUT,QGAM] = [ 11.54, 23.24] = [ 37.28,151.24] Ry 
 Optimized for a Real-space Cutoff    1.28 Angstroem

   l    n(q)    QCUT    max X(q) W(low)/X(q) W(high)/X(q)  e(spline) 
   0      9    11.539   224.858    0.12E-03    0.25E-03    0.11E-06
   0      9    11.539   205.313    0.12E-03    0.25E-03    0.11E-06
   1      8    11.539   119.695    0.27E-03    0.88E-04    0.15E-06
   1      8    11.539    84.282    0.27E-03    0.87E-04    0.15E-06
   2      8    11.539     5.599    0.91E-04    0.16E-03    0.46E-07
 Optimization of the real space projectors (new method)

 maximal supplied QI-value         = 34.20
 optimisation between [QCUT,QGAM] = [ 11.63, 23.26] = [ 37.87,151.49] Ry 
 Optimized for a Real-space Cutoff    1.14 Angstroem

   l    n(q)    QCUT    max X(q) W(low)/X(q) W(high)/X(q)  e(spline) 
   0      8    11.629    19.460    0.27E-03    0.65E-03    0.17E-06
   0      8    11.629    12.209    0.25E-03    0.62E-03    0.16E-06
   1      7    11.629     4.655    0.29E-03    0.85E-04    0.19E-06
  PAW_PBE Mo_sv 02Feb2006               :
 energy of atom  1       EATOM=-1862.2866
 kinetic energy error for atom=    0.0070 (will be added to EATOM!!)
  PAW_PBE N 08Apr2002                   :
 energy of atom  2       EATOM= -264.5486
 kinetic energy error for atom=    0.0125 (will be added to EATOM!!)
  PAW_PBE Si 05Jan2001                  :
 energy of atom  3       EATOM= -103.0669
 kinetic energy error for atom=    0.0005 (will be added to EATOM!!)
  PAW_PBE Ni 02Aug2007                  :
 energy of atom  4       EATOM=-1077.6739
 kinetic energy error for atom=    0.0030 (will be added to EATOM!!)
  PAW_PBE O 08Apr2002                   :
 energy of atom  5       EATOM= -432.3788
 kinetic energy error for atom=    0.0208 (will be added to EATOM!!)
  PAW_PBE Te 08Apr2002                  :
 energy of atom  6       EATOM= -223.2721
 kinetic energy error for atom=    0.0007 (will be added to EATOM!!)
  PAW_PBE H 15Jun2001                   :
 energy of atom  7       EATOM=  -12.4884
 kinetic energy error for atom=    0.0014 (will be added to EATOM!!)
 
 
 POSCAR: Converted by xsd2pos.py
  positions in direct lattice
  velocities in cartesian coordinates
 exchange correlation table for  LEXCH =        8
   RHO(1)=    0.500       N(1)  =     2000
   RHO(2)=  100.500       N(2)  =     4000
 


--------------------------------------------------------------------------------------------------------


 ion  position               nearest neighbor table
   1  0.167  0.000  0.610-  29 2.10  46 2.11  13 2.11  50 2.11  33 2.11  17 2.11   8 2.93   5 2.93
                             6 2.93   9 2.93  11 2.93  10 2.93
   2  0.166  0.500  0.610-  45 2.10  14 2.10  30 2.10  18 2.10  49 2.11  34 2.12   7 2.93  10 2.93
                             6 2.93   9 2.93  12 2.93   5 2.94
   3  0.667  0.000  0.610-  31 2.10  15 2.10  35 2.10  19 2.11  48 2.11  52 2.12   8 2.93   7 2.93
                             9 2.93  11 2.93  12 2.93   6 2.94
   4  0.667  0.500  0.610-  32 2.10  47 2.10  51 2.10  36 2.11  16 2.11  20 2.12   5 2.93   7 2.93
                            11 2.93  10 2.93  12 2.93   8 2.94
   5  0.334  0.333  0.610-  13 2.10  47 2.10  51 2.10  17 2.11  30 2.11  34 2.12   4 2.93   1 2.93
                            11 2.93   9 2.93  12 2.93   2 2.94
   6  0.333  0.833  0.610-  14 2.10  29 2.10  18 2.10  33 2.11  48 2.11  52 2.12   2 2.93   1 2.93
                            10 2.93  11 2.93  12 2.93   3 2.94
   7  0.833  0.333  0.610-  15 2.10  32 2.11  45 2.11  36 2.11  19 2.11  49 2.11   2 2.93   3 2.93
                             4 2.93  10 2.93   9 2.93  11 2.93
   8  0.834  0.834  0.610-  46 2.10  31 2.10  16 2.10  35 2.10  50 2.11  20 2.12   1 2.93   9 2.93
                             3 2.93  10 2.93  12 2.93   4 2.94
   9  0.000  0.167  0.610-  45 2.10  13 2.11  35 2.11  31 2.11  17 2.11  49 2.11   8 2.93   3 2.93
                             1 2.93   5 2.93   2 2.93   7 2.93
  10  1.000  0.667  0.610-  46 2.10  32 2.11  14 2.11  18 2.11  36 2.11  50 2.11   2 2.93   6 2.93
                             7 2.93   8 2.93   4 2.93   1 2.93
  11  0.500  0.166  0.610-  47 2.10  15 2.11  29 2.11  51 2.11  33 2.11  19 2.11   5 2.93   4 2.93
                             6 2.93   3 2.93   1 2.93   7 2.93
  12  0.500  0.667  0.610-  48 2.10  20 2.10  52 2.10  34 2.10  16 2.10  30 2.10   5 2.93   4 2.93
                             2 2.93   6 2.93   3 2.93   8 2.93
  13  0.167  0.167  0.574-  65 1.76   5 2.10   9 2.11   1 2.11
  14  0.167  0.667  0.574-  66 1.76   6 2.10   2 2.10  10 2.11
  15  0.667  0.167  0.574-  67 1.76   7 2.10   3 2.10  11 2.11
  16  0.667  0.667  0.574-  68 1.76  12 2.10   8 2.10   4 2.11
  17  0.167  0.167  0.646-  61 1.74   5 2.11   9 2.11   1 2.11
  18  0.167  0.667  0.646-  62 1.74   2 2.10   6 2.10  10 2.11
  19  0.667  0.167  0.646-  63 1.74   3 2.11  11 2.11   7 2.11
  20  0.665  0.667  0.646-  64 1.71  12 2.10   8 2.12   4 2.12
  21  0.167  0.000  0.711-  69 1.77  78 1.77  61 1.77
  22  0.166  0.500  0.711-  70 1.75  62 1.78  77 1.78
  23  0.667  0.001  0.711-  80 1.75  71 1.78  63 1.78
  24  0.667  0.500  0.711-  64 1.75  79 1.78  72 1.78
  25  0.166  0.000  0.510-  65 1.76  82 1.76  73 1.77
  26  0.166  0.500  0.510-  66 1.76  81 1.76  74 1.77
  27  0.666  0.000  0.510-  67 1.76  84 1.76  75 1.77
  28  0.666  0.500  0.510-  68 1.76  83 1.76  76 1.77
  29  0.333  1.000  0.574-  73 1.76   1 2.10   6 2.10  11 2.11
  30  0.333  0.500  0.574-  74 1.76  12 2.10   2 2.10   5 2.11
  31  0.833  0.000  0.574-  75 1.76   3 2.10   8 2.10   9 2.11
  32  0.833  0.500  0.574-  76 1.76   4 2.10   7 2.11  10 2.11
  33  0.333  1.000  0.646-  69 1.74   6 2.11  11 2.11   1 2.11
  34  0.335  0.502  0.646-  70 1.71  12 2.10   5 2.12   2 2.12
  35  0.833  0.000  0.646-  71 1.74   8 2.10   3 2.10   9 2.11
  36  0.833  0.500  0.646-  72 1.74  10 2.11   4 2.11   7 2.11
  37  0.333  0.333  0.711-  70 1.75  79 1.78  61 1.78
  38  0.334  0.834  0.711-  80 1.75  62 1.78  69 1.78
  39  0.833  0.333  0.711-  72 1.77  63 1.77  77 1.77
  40  0.834  0.833  0.711-  64 1.75  71 1.78  78 1.78
  41  0.334  0.334  0.510-  83 1.76  74 1.76  65 1.77
  42  0.334  0.834  0.510-  84 1.76  73 1.76  66 1.77
  43  0.834  0.334  0.510-  81 1.76  76 1.76  67 1.77
  44  0.834  0.834  0.510-  82 1.76  75 1.76  68 1.77
  45  0.000  0.333  0.574-  81 1.76   9 2.10   2 2.10   7 2.11
  46  0.000  0.833  0.574-  82 1.76  10 2.10   8 2.10   1 2.11
  47  0.500  0.333  0.574-  83 1.76  11 2.10   4 2.10   5 2.10
  48  0.500  0.833  0.574-  84 1.76  12 2.10   3 2.11   6 2.11
  49  0.000  0.334  0.646-  77 1.74   2 2.11   9 2.11   7 2.11
  50  1.000  0.833  0.646-  78 1.74   8 2.11   1 2.11  10 2.11
  51  0.500  0.333  0.646-  79 1.74   5 2.10   4 2.10  11 2.11
  52  0.500  0.832  0.646-  80 1.71  12 2.10   3 2.12   6 2.12
  53  1.000  0.166  0.711-  71 1.77  61 1.77  77 1.77
  54  0.001  0.667  0.711-  62 1.77  78 1.77  72 1.77
  55  0.500  0.167  0.711-  79 1.77  63 1.77  69 1.77
  56  0.500  0.667  0.712- 125 1.03  64 1.88  80 1.88  70 1.88
  57  0.500  0.166  0.510-  73 1.76  67 1.76  83 1.77
  58  0.500  0.666  0.510-  74 1.76  68 1.76  84 1.77
  59  1.000  0.166  0.510-  75 1.76  65 1.76  81 1.77
  60  1.000  0.666  0.510-  76 1.76  66 1.76  82 1.77
  61  0.166  0.165  0.696-  17 1.74  21 1.77  53 1.77  37 1.78  70 2.87  69 2.91  78 2.92  71 2.92
                            77 2.94  79 2.94
  62  0.166  0.667  0.696-  18 1.74  54 1.77  38 1.78  22 1.78  78 2.92  72 2.92  70 2.93  80 2.94
                            77 2.94  69 2.94
  63  0.667  0.168  0.696-  19 1.74  39 1.77  55 1.77  23 1.78  80 2.87  72 2.91  77 2.92  79 2.92
                            69 2.94  71 2.94
  64  0.676  0.667  0.695-  20 1.71  40 1.75  24 1.75  56 1.88  78 2.87  72 2.87  71 2.94  79 2.94
                            70 3.08  80 3.08
  65  0.167  0.167  0.524-  13 1.76  25 1.76  59 1.76  41 1.77  74 2.92  73 2.92  81 2.92  83 2.92
                            75 2.94  82 2.94
  66  0.167  0.667  0.524-  14 1.76  26 1.76  60 1.76  42 1.77  82 2.92  73 2.92  84 2.92  74 2.92
                            76 2.94  81 2.94
  67  0.667  0.167  0.524-  15 1.76  27 1.76  57 1.76  43 1.77  83 2.92  76 2.92  81 2.92  75 2.92
                            84 2.94  73 2.94
  68  0.667  0.667  0.524-  16 1.76  28 1.76  58 1.76  44 1.77  75 2.92  84 2.92  76 2.92  82 2.92
                            74 2.94  83 2.94
  69  0.333  0.001  0.696-  33 1.74  21 1.77  55 1.77  38 1.78  80 2.87  78 2.91  61 2.91  79 2.92
                            63 2.94  62 2.94
  70  0.325  0.491  0.695-  34 1.71  37 1.75  22 1.75  56 1.88  77 2.87  61 2.87  62 2.93  79 2.94
                            64 3.08  80 3.08
  71  0.834  0.001  0.696-  35 1.74  53 1.77  23 1.78  40 1.78  77 2.92  61 2.92  80 2.93  64 2.94
                            63 2.94  78 2.94
  72  0.835  0.500  0.696-  36 1.74  39 1.77  54 1.77  24 1.78  64 2.87  63 2.91  77 2.91  62 2.92
                            78 2.94  79 2.94
  73  0.333  1.000  0.524-  29 1.76  57 1.76  42 1.76  25 1.77  82 2.92  66 2.92  83 2.92  65 2.92
                            84 2.94  67 2.94
  74  0.333  0.500  0.524-  30 1.76  58 1.76  41 1.76  26 1.77  81 2.92  65 2.92  84 2.92  66 2.92
                            68 2.94  83 2.94
  75  0.833  0.000  0.524-  31 1.76  59 1.76  44 1.76  27 1.77  81 2.92  67 2.92  84 2.92  68 2.92
                            65 2.94  82 2.94
  76  0.833  0.500  0.524-  32 1.76  60 1.76  43 1.76  28 1.77  67 2.92  83 2.92  68 2.92  82 2.92
                            66 2.94  81 2.94
  77  0.999  0.332  0.696-  49 1.74  39 1.77  53 1.77  22 1.78  70 2.87  72 2.91  63 2.92  71 2.92
                            61 2.94  62 2.94
  78  0.002  0.834  0.696-  50 1.74  21 1.77  54 1.77  40 1.78  64 2.87  69 2.91  61 2.92  62 2.92
                            72 2.94  71 2.94
  79  0.500  0.333  0.696-  51 1.74  55 1.77  37 1.78  24 1.78  63 2.92  69 2.92  70 2.94  64 2.94
                            61 2.94  72 2.94
  80  0.500  0.842  0.695-  52 1.71  23 1.75  38 1.75  56 1.88  63 2.87  69 2.87  71 2.93  62 2.94
                            70 3.08  64 3.08
  81  0.000  0.333  0.524-  45 1.76  43 1.76  26 1.76  59 1.77  74 2.92  65 2.92  75 2.92  67 2.92
                            76 2.94  66 2.94
  82  0.000  0.833  0.524-  46 1.76  44 1.76  25 1.76  60 1.77  66 2.92  73 2.92  68 2.92  76 2.92
                            65 2.94  75 2.94
  83  0.500  0.333  0.524-  47 1.76  41 1.76  28 1.76  57 1.77  67 2.92  76 2.92  73 2.92  65 2.92
                            68 2.94  74 2.94
  84  0.500  0.833  0.524-  48 1.76  42 1.76  27 1.76  58 1.77  75 2.92  68 2.92  66 2.92  74 2.92
                            73 2.94  67 2.94
  85  1.000  1.000  0.350- 102 1.87 105 1.87 100 1.87 122 3.33 124 3.33 121 3.33
  86  1.000  0.500  0.350-  99 1.87 106 1.87 101 1.87 123 3.33 121 3.33 122 3.33
  87  0.500  1.000  0.350-  98 1.87 107 1.87 104 1.87 122 3.33 124 3.33 123 3.33
  88  0.500  0.500  0.350-  97 1.87 103 1.87 108 1.87 121 3.33 124 3.33 123 3.33
  89  0.000  1.000  0.441- 110 1.88 113 1.88 120 1.88 122 3.35 121 3.35 124 3.35
  90  1.000  0.500  0.441- 109 1.88 119 1.88 114 1.88 123 3.35 121 3.35 122 3.35
  91  0.500  0.000  0.441- 118 1.88 115 1.88 112 1.88 123 3.35 122 3.35 124 3.35
  92  0.500  0.500  0.441- 111 1.88 117 1.88 116 1.88 121 3.35 123 3.35 124 3.35
  93  0.333  0.167  0.395- 113 2.03 118 2.03 111 2.03  97 2.03 107 2.03 102 2.03 122 2.93 121 2.93
                           123 2.93
  94  0.333  0.667  0.395- 117 2.03 114 2.03 112 2.03  98 2.03 101 2.03 108 2.03 121 2.93 122 2.93
                           124 2.93
  95  0.833  0.167  0.395- 115 2.03 109 2.03 120 2.03 104 2.03  99 2.03 105 2.03 124 2.93 123 2.93
                           121 2.93
  96  0.833  0.667  0.395- 119 2.03 110 2.03 116 2.03 100 2.03 106 2.03 103 2.03 123 2.93 124 2.93
                           122 2.93
  97  0.318  0.325  0.362-  88 1.87 121 1.95  93 2.03
  98  0.318  0.825  0.362-  87 1.87 122 1.95  94 2.03
  99  0.818  0.325  0.362-  86 1.87 123 1.95  95 2.03
 100  0.818  0.825  0.362-  85 1.87 124 1.95  96 2.03
 101  0.175  0.494  0.362-  86 1.87 121 1.95  94 2.03
 102  0.175  0.994  0.362-  85 1.87 122 1.95  93 2.03
 103  0.675  0.494  0.362-  88 1.87 123 1.95  96 2.03
 104  0.675  0.994  0.362-  87 1.87 124 1.95  95 2.03
 105  0.006  0.182  0.362-  85 1.87 121 1.95  95 2.03
 106  0.006  0.682  0.362-  86 1.87 122 1.95  96 2.03
 107  0.506  0.182  0.362-  87 1.87 123 1.95  93 2.03
 108  0.506  0.682  0.362-  88 1.87 124 1.95  94 2.03
 109  0.006  0.325  0.427-  90 1.88 121 1.95  95 2.03
 110  0.006  0.825  0.427-  89 1.88 122 1.95  96 2.03
 111  0.506  0.325  0.427-  92 1.88 123 1.95  93 2.03
 112  0.506  0.825  0.427-  91 1.88 124 1.95  94 2.03
 113  0.175  0.181  0.427-  89 1.88 121 1.95  93 2.03
 114  0.175  0.681  0.427-  90 1.88 122 1.95  94 2.03
 115  0.675  0.181  0.427-  91 1.88 123 1.95  95 2.03
 116  0.675  0.681  0.427-  92 1.88 124 1.95  96 2.03
 117  0.319  0.494  0.427-  92 1.88 121 1.95  94 2.03
 118  0.319  0.994  0.427-  91 1.88 122 1.95  93 2.03
 119  0.819  0.494  0.427-  90 1.88 123 1.95  96 2.03
 120  0.819  0.994  0.427-  89 1.88 124 1.95  95 2.03
 121  0.167  0.333  0.395-  97 1.95 101 1.95 105 1.95 113 1.95 117 1.95 109 1.95  94 2.93  93 2.93
                            95 2.93  88 3.33  86 3.33  85 3.33  92 3.35  90 3.35  89 3.35
 122  0.167  0.833  0.395- 102 1.95  98 1.95 106 1.95 118 1.95 110 1.95 114 1.95  93 2.93  94 2.93
                            96 2.93  87 3.33  85 3.33  86 3.33  89 3.35  91 3.35  90 3.35
 123  0.667  0.333  0.395-  99 1.95 107 1.95 103 1.95 119 1.95 115 1.95 111 1.95  96 2.93  95 2.93
                            93 2.93  86 3.33  87 3.33  88 3.33  90 3.35  92 3.35  91 3.35
 124  0.667  0.833  0.395- 100 1.95 104 1.95 108 1.95 120 1.95 116 1.95 112 1.95  95 2.93  96 2.93
                            94 2.93  85 3.33  87 3.33  88 3.33  92 3.35  89 3.35  91 3.35
 125  0.501  0.667  0.742-  56 1.03
 
 -----------------------------------------------------------------------------
|                                                                             |
|           W    W    AA    RRRRR   N    N  II  N    N   GGGG   !!!           |
|           W    W   A  A   R    R  NN   N  II  NN   N  G    G  !!!           |
|           W    W  A    A  R    R  N N  N  II  N N  N  G       !!!           |
|           W WW W  AAAAAA  RRRRR   N  N N  II  N  N N  G  GGG   !            |
|           WW  WW  A    A  R   R   N   NN  II  N   NN  G    G                |
|           W    W  A    A  R    R  N    N  II  N    N   GGGG   !!!           |
|                                                                             |
|     The determination of the symmetry of your systems shows a strong        |
|     dependence on the tolerance parameter SYMPREC. This is often the        |
|     result of "noise" in the structural parameters (lattice vectors         |
|     and/or ionic positions). Set NWRITE=3 for more details.                 |
|                                                                             |
 -----------------------------------------------------------------------------

  LATTYP: Found a hexagonal cell.
 ALAT       =    10.1502439882
 C/A-ratio  =     3.4421241539
  
  Lattice vectors:
  
 A1 = (  10.1502230000,   0.0000000000,   0.0000000000)
 A2 = (  -5.0750975100,   8.7903671300,   0.0000000000)
 A3 = (   0.0000000000,  -0.0000535100,  34.9384000000)


Analysis of symmetry for initial positions (statically):
=====================================================================
 Subroutine PRICEL returns:
 Original cell was already a primitive cell.
 

 Routine SETGRP: Setting up the symmetry group for a 
 hexagonal supercell.


 Subroutine GETGRP returns: Found  1 space group operations
 (whereof  1 operations were pure point group operations)
 out of a pool of 24 trial point group operations.


The static configuration has the point symmetry C_1 .


Analysis of symmetry for dynamics (positions and initial velocities):
=====================================================================
 Subroutine PRICEL returns:
 Original cell was already a primitive cell.
 

 Routine SETGRP: Setting up the symmetry group for a 
 hexagonal supercell.


 Subroutine GETGRP returns: Found  1 space group operations
 (whereof  1 operations were pure point group operations)
 out of a pool of 24 trial point group operations.


The dynamic configuration has the point symmetry C_1 .


Analysis of structural, dynamic, and magnetic symmetry:
=====================================================================
 Subroutine PRICEL returns:
 Original cell was already a primitive cell.
 

 Routine SETGRP: Setting up the symmetry group for a 
 hexagonal supercell.


 Subroutine GETGRP returns: Found  1 space group operations
 (whereof  1 operations were pure point group operations)
 out of a pool of 24 trial point group operations.


The magnetic configuration has the point symmetry C_1 .


 Subroutine INISYM returns: Found  1 space group operations
 (whereof  1 operations are pure point group operations),
 and found     1 'primitive' translations


----------------------------------------------------------------------------------------

                                     Primitive cell                                     

  volume of cell :    3117.3503

  direct lattice vectors                    reciprocal lattice vectors
    10.150223000  0.000000000  0.000000000     0.098520003  0.056880289  0.000000087
    -5.075097510  8.790367130  0.000000000     0.000000000  0.113760891  0.000000174
     0.000000000 -0.000053510 34.938400000     0.000000000  0.000000000  0.028621803

  length of vectors
    10.150223000 10.150229998 34.938400000     0.113760970  0.113760891  0.028621803

  position of ions in fractional coordinates (direct lattice)
     0.166673660  0.000045799  0.610061347
     0.166373051  0.500222337  0.609936418
     0.667165713  0.000362107  0.609924037
     0.666500287  0.499551365  0.609925430
     0.333610302  0.333114264  0.609936349
     0.332943611  0.833237411  0.609927919
     0.833434011  0.333413599  0.610061265
     0.833756536  0.833907317  0.609921420
     0.000285069  0.166896524  0.610039755
     0.999823893  0.666652011  0.610035278
     0.500038771  0.166423171  0.610036734
     0.500048564  0.666655424  0.609680890
     0.167169877  0.167121809  0.574215517
     0.166787247  0.667124347  0.574152436
     0.667185006  0.167155599  0.574209784
     0.667153001  0.667127821  0.574119024
     0.167004849  0.166963745  0.646019220
     0.166806904  0.666756188  0.645885727
     0.666788878  0.166557503  0.646011295
     0.665173040  0.666765239  0.645825082
     0.166810372  0.000113801  0.711192936
     0.166469980  0.499720481  0.711141667
     0.666803812  0.000514308  0.711117764
     0.667233551  0.500170990  0.711116907
     0.165762416  0.000112997  0.509571334
     0.165728666  0.500106615  0.509554739
     0.665802288  0.000153246  0.509547460
     0.665777275  0.500062264  0.509550266
     0.332839960  0.999915253  0.574210670
     0.332882978  0.499934737  0.574129467
     0.833264411  0.000315504  0.574148201
     0.832876235  0.499890918  0.574209080
     0.333319087  0.999809334  0.646012014
     0.334994833  0.501681495  0.645855451
     0.833323853  0.000010777  0.645874702
     0.833126950  0.500014111  0.646009393
     0.333102722  0.333095422  0.711140070
     0.333549627  0.833865660  0.711122335
     0.833498123  0.333451448  0.711192101
     0.833881512  0.833432408  0.711113778
     0.334337036  0.334195688  0.509556833
     0.334291030  0.834244927  0.509548297
     0.834351734  0.334237917  0.509572209
     0.834378988  0.834271612  0.509545320
     0.000075367  0.333047091  0.574216695
     0.000110739  0.833057673  0.574208036
     0.500070704  0.332653233  0.574155683
     0.500076797  0.833025493  0.574119783
     0.000276410  0.333579977  0.646019034
     0.999869161  0.833359519  0.646008793
     0.500069235  0.333377771  0.645883232
     0.500080660  0.831739163  0.645830346
     0.999671947  0.166294654  0.711055286
     0.000648103  0.666764859  0.711049434
     0.500138881  0.167265055  0.711050502
     0.500256509  0.666866352  0.712027589
     0.499894041  0.165600980  0.509558844
     0.499889987  0.665664738  0.509516792
     0.999966022  0.165735657  0.509560968
     0.999833555  0.665667669  0.509555466
     0.165696944  0.165366816  0.695934678
     0.166445015  0.666781708  0.695679202
     0.667121484  0.168252430  0.695924142
     0.675541122  0.666817924  0.694588883
     0.167358654  0.167367724  0.523949008
     0.167306125  0.667386698  0.523883178
     0.667378010  0.167397959  0.523942837
     0.667360669  0.667360047  0.523863465
     0.333161515  0.001255398  0.695926982
     0.324853621  0.491475871  0.694630355
     0.833908622  0.000542790  0.695662699
     0.834639603  0.499799155  0.695923663
     0.332602009  0.999983986  0.523944376
     0.332619058  0.499971777  0.523869289
     0.832668758  0.000026425  0.523880433
     0.832636579  0.499965630  0.523942551
     0.998748657  0.332321021  0.695932889
     0.001620502  0.833736122  0.695922766
     0.500154127  0.333051897  0.695674349
     0.500195732  0.842171921  0.694593941
     0.000018068  0.332658649  0.523950434
     0.000032781  0.832667501  0.523940861
     0.500027300  0.332609573  0.523890301
     0.500006445  0.832676415  0.523861534
     0.999994590  0.999991803  0.349572698
     0.999988212  0.499988409  0.349572377
     0.499989341  0.999991689  0.349574675
     0.499983149  0.499994040  0.349572511
     0.000012096  0.999997696  0.441082450
     0.999974823  0.499978542  0.441081736
     0.499992485  0.000015536  0.441082063
     0.499984672  0.499986573  0.441073623
     0.333325335  0.166661841  0.394838904
     0.333319614  0.666658568  0.394839935
     0.833324026  0.166656708  0.394839854
     0.833325839  0.666658500  0.394838566
     0.318432767  0.324535475  0.362159697
     0.318435167  0.824528804  0.362159582
     0.818432752  0.324530178  0.362157571
     0.818432844  0.824534699  0.362160585
     0.175450130  0.493893030  0.362158927
     0.175453190  0.993894650  0.362158063
     0.675441183  0.493893810  0.362158689
     0.675449288  0.993893137  0.362161216
     0.006096071  0.181551909  0.362159427
     0.006093980  0.681548362  0.362159588
     0.506094136  0.181554092  0.362159930
     0.506093992  0.681555697  0.362162193
     0.006266830  0.324792831  0.427140569
     0.006268699  0.824792552  0.427139833
     0.506271320  0.324796811  0.427144128
     0.506270289  0.824804684  0.427146860
     0.175200824  0.181476642  0.427141267
     0.175186675  0.681465175  0.427146211
     0.675199076  0.181477988  0.427141300
     0.675193126  0.681470321  0.427148330
     0.318512615  0.493717559  0.427145378
     0.318511131  0.993714861  0.427141717
     0.818509922  0.493715752  0.427140441
     0.818520923  0.993714487  0.427147904
     0.166665114  0.333332668  0.394617294
     0.166663523  0.833333131  0.394616905
     0.666665802  0.333332608  0.394616986
     0.666667175  0.833333836  0.394617544
     0.500540753  0.667077656  0.741554321

  ion indices of the primitive-cell ions
   primitive index   ion index
                 1           1
                 2           2
                 3           3
                 4           4
                 5           5
                 6           6
                 7           7
                 8           8
                 9           9
                10          10
                11          11
                12          12
                13          13
                14          14
                15          15
                16          16
                17          17
                18          18
                19          19
                20          20
                21          21
                22          22
                23          23
                24          24
                25          25
                26          26
                27          27
                28          28
                29          29
                30          30
                31          31
                32          32
                33          33
                34          34
                35          35
                36          36
                37          37
                38          38
                39          39
                40          40
                41          41
                42          42
                43          43
                44          44
                45          45
                46          46
                47          47
                48          48
                49          49
                50          50
                51          51
                52          52
                53          53
                54          54
                55          55
                56          56
                57          57
                58          58
                59          59
                60          60
                61          61
                62          62
                63          63
                64          64
                65          65
                66          66
                67          67
                68          68
                69          69
                70          70
                71          71
                72          72
                73          73
                74          74
                75          75
                76          76
                77          77
                78          78
                79          79
                80          80
                81          81
                82          82
                83          83
                84          84
                85          85
                86          86
                87          87
                88          88
                89          89
                90          90
                91          91
                92          92
                93          93
                94          94
                95          95
                96          96
                97          97
                98          98
                99          99
               100         100
               101         101
               102         102
               103         103
               104         104
               105         105
               106         106
               107         107
               108         108
               109         109
               110         110
               111         111
               112         112
               113         113
               114         114
               115         115
               116         116
               117         117
               118         118
               119         119
               120         120
               121         121
               122         122
               123         123
               124         124
               125         125

----------------------------------------------------------------------------------------

 
 
 KPOINTS: KPT-Resolved Value to Generate K-Mesh: 0

Automatic generation of k-mesh.
Space group operators:
 irot       det(A)        alpha          n_x          n_y          n_z        tau_x        tau_y        tau_z
    1     1.000000     0.000000     1.000000     0.000000     0.000000     0.000000     0.000000     0.000000
 
 Subroutine IBZKPT returns following result:
 ===========================================
 
 Found     24 irreducible k-points:
 
 Following reciprocal coordinates:
            Coordinates               Weight
  0.125000  0.125000  0.000000      2.000000
  0.250000 -0.125000  0.000000      2.000000
  0.125000 -0.250000  0.000000      2.000000
  0.375000  0.125000  0.000000      2.000000
  0.500000 -0.375000  0.000000      2.000000
  0.125000  0.500000 -0.000000      2.000000
 -0.125000 -0.375000 -0.000000      2.000000
  0.375000  0.500000 -0.000000      2.000000
  0.500000 -0.125000 -0.000000      2.000000
 -0.375000  0.125000 -0.000000      2.000000
 -0.250000  0.375000 -0.000000      2.000000
  0.125000  0.250000 -0.000000      2.000000
 -0.125000  0.375000 -0.000000      2.000000
 -0.375000  0.250000  0.000000      2.000000
 -0.250000 -0.125000  0.000000      2.000000
 -0.125000  0.125000 -0.000000      2.000000
  0.000000  0.125000  0.000000      2.000000
  0.125000 -0.000000  0.000000      2.000000
  0.375000  0.375000  0.000000      2.000000
 -0.250000 -0.375000  0.000000      2.000000
  0.375000  0.250000  0.000000      2.000000
 -0.375000  0.375000 -0.000000      2.000000
  0.000000  0.375000  0.000000      2.000000
  0.375000 -0.000000 -0.000000      2.000000
 
 Following cartesian coordinates:
            Coordinates               Weight
  0.012315  0.021330  0.000000      2.000000
  0.024630 -0.000000 -0.000000      2.000000
  0.012315 -0.021330 -0.000000      2.000000
  0.036945  0.035550  0.000000      2.000000
  0.049260 -0.014220 -0.000000      2.000000
  0.012315  0.063990  0.000000      2.000000
 -0.012315 -0.049770 -0.000000      2.000000
  0.036945  0.078211  0.000000      2.000000
  0.049260  0.014220  0.000000      2.000000
 -0.036945 -0.007110 -0.000000      2.000000
 -0.024630  0.028440  0.000000      2.000000
  0.012315  0.035550  0.000000      2.000000
 -0.012315  0.035550  0.000000      2.000000
 -0.036945  0.007110  0.000000      2.000000
 -0.024630 -0.028440 -0.000000      2.000000
 -0.012315  0.007110  0.000000      2.000000
  0.000000  0.014220  0.000000      2.000000
  0.012315  0.007110  0.000000      2.000000
  0.036945  0.063990  0.000000      2.000000
 -0.024630 -0.056880 -0.000000      2.000000
  0.036945  0.049770  0.000000      2.000000
 -0.036945  0.021330  0.000000      2.000000
  0.000000  0.042660  0.000000      2.000000
  0.036945  0.021330  0.000000      2.000000
 


--------------------------------------------------------------------------------------------------------




 Dimension of arrays:
   k-points           NKPTS =     24   k-points in BZ     NKDIM =     24   number of bands    NBANDS=    544
   number of dos      NEDOS =   2001   number of ions     NIONS =    125
   non local maximal  LDIM  =      6   non local SUM 2l+1 LMDIM =     18
   total plane-waves  NPLWV = 705600
   max r-space proj   IRMAX =   3180   max aug-charges    IRDMAX= 105507
   dimension x,y,z NGX =    60 NGY =   60 NGZ =  196
   dimension x,y,z NGXF=   120 NGYF=  120 NGZF=  392
   support grid    NGXF=   240 NGYF=  240 NGZF=  784
   ions per type =              12  48  24  12  24   4   1
   NGX,Y,Z   is equivalent  to a cutoff of   9.83,  9.83,  9.33 a.u.
   NGXF,Y,Z  is equivalent  to a cutoff of  19.65, 19.65, 18.65 a.u.

 SYSTEM =  unknown system                          
 POSCAR =  Converted by xsd2pos.py                 

 Startparameter for this run:
   NWRITE =      2    write-flag & timer
   PREC   = normal    normal or accurate (medium, high low for compatibility)
   ISTART =      0    job   : 0-new  1-cont  2-samecut
   ICHARG =      2    charge: 1-file 2-atom 10-const
   ISPIN  =      2    spin polarized calculation?
   LNONCOLLINEAR =      F non collinear calculations
   LSORBIT =      F    spin-orbit coupling
   INIWAV =      1    electr: 0-lowe 1-rand  2-diag
   LASPH  =      F    aspherical Exc in radial PAW
   METAGGA=      F    non-selfconsistent MetaGGA calc.

 Electronic Relaxation 1
   ENCUT  =  520.0 eV  38.22 Ry    6.18 a.u.  18.87 18.87 64.96*2*pi/ulx,y,z
   ENINI  =  520.0     initial cutoff
   ENAUG  =  627.1 eV  augmentation charge cutoff
   NELM   =     60;   NELMIN=  2; NELMDL=  0     # of ELM steps 
   EDIFF  = 0.1E-04   stopping-criterion for ELM
   LREAL  =      T    real-space projection
   NLSPLINE    = F    spline interpolate recip. space projectors
   LCOMPAT=      F    compatible to vasp.4.4
   GGA_COMPAT  = T    GGA compatible to vasp.4.4-vasp.4.6
   LMAXPAW     = -100 max onsite density
   LMAXMIX     =    4 max onsite mixed and CHGCAR
   VOSKOWN=      0    Vosko Wilk Nusair interpolation
   ROPT   =   -0.00050  -0.00050  -0.00050  -0.00050
   ROPT   =   -0.00050  -0.00050  -0.00050
 Ionic relaxation
   EDIFFG = 0.1E-03   stopping-criterion for IOM
   NSW    =      0    number of steps for IOM
   NBLOCK =      1;   KBLOCK =      1    inner block; outer block 
   IBRION =     -1    ionic relax: 0-MD 1-quasi-New 2-CG
   NFREE  =      0    steps in history (QN), initial steepest desc. (CG)
   ISIF   =      2    stress and relaxation
   IWAVPR =     10    prediction:  0-non 1-charg 2-wave 3-comb
   ISYM   =      2    0-nonsym 1-usesym 2-fastsym
   LCORR  =      T    Harris-Foulkes like correction to forces

   POTIM  = 0.5000    time-step for ionic-motion
   TEIN   =    0.0    initial temperature
   TEBEG  =    0.0;   TEEND  =   0.0 temperature during run
   SMASS  =  -3.00    Nose mass-parameter (am)
   estimated Nose-frequenzy (Omega)   =  0.10E-29 period in steps = 0.13E+47 mass=  -0.235E-26a.u.
   SCALEE = 1.0000    scale energy and forces
   NPACO  =    256;   APACO  = 16.0  distance and # of slots for P.C.
   PSTRESS=    0.0 pullay stress

  Mass of Ions in am
   POMASS =  95.94 14.00 28.09 58.69 16.00127.60  1.00
  Ionic Valenz
   ZVAL   =  14.00  5.00  4.00 10.00  6.00  6.00  1.00
  Atomic Wigner-Seitz radii
   RWIGS  =  -1.00 -1.00 -1.00 -1.00 -1.00 -1.00 -1.00
  virtual crystal weights 
   VCA    =   1.00  1.00  1.00  1.00  1.00  1.00  1.00
   NELECT =     793.0000    total number of electrons
   NUPDOWN=      -1.0000    fix difference up-down

 DOS related values:
   EMIN   =  10.00;   EMAX   =-10.00  energy-range for DOS
   EFERMI =   0.00
   ISMEAR =     0;   SIGMA  =   0.05  broadening in eV -4-tet -1-fermi 0-gaus

 Electronic relaxation 2 (details)
   IALGO  =     38    algorithm
   LDIAG  =      T    sub-space diagonalisation (order eigenvalues)
   LSUBROT=      F    optimize rotation matrix (better conditioning)
   TURBO    =      0    0=normal 1=particle mesh
   IRESTART =      0    0=no restart 2=restart with 2 vectors
   NREBOOT  =      0    no. of reboots
   NMIN     =      0    reboot dimension
   EREF     =   0.00    reference energy to select bands
   IMIX   =      4    mixing-type and parameters
     AMIX     =   0.40;   BMIX     =  1.00
     AMIX_MAG =   1.60;   BMIX_MAG =  1.00
     AMIN     =   0.10
     WC   =   100.;   INIMIX=   1;  MIXPRE=   1;  MAXMIX= -45

 Intra band minimization:
   WEIMIN = 0.0000     energy-eigenvalue tresh-hold
   EBREAK =  0.46E-08  absolut break condition
   DEPER  =   0.30     relativ break condition  

   TIME   =   0.40     timestep for ELM

  volume/ion in A,a.u.               =      24.94       168.30
  Fermi-wavevector in a.u.,A,eV,Ry     =   1.037299  1.960211 14.639726  1.075990
  Thomas-Fermi vector in A             =   2.171730
 
 Write flags
   LWAVE        =      T    write WAVECAR
   LDOWNSAMPLE  =      F    k-point downsampling of WAVECAR
   LCHARG       =      T    write CHGCAR
   LVTOT        =      F    write LOCPOT, total local potential
   LVHAR        =      T    write LOCPOT, Hartree potential only
   LELF         =      F    write electronic localiz. function (ELF)
   LORBIT       =     11    0 simple, 1 ext, 2 COOP (PROOUT), +10 PAW based schemes


 Dipole corrections
   LMONO  =      F    monopole corrections only (constant potential shift)
   LDIPOL =      F    correct potential (dipole corrections)
   IDIPOL =      0    1-x, 2-y, 3-z, 4-all directions 
   EPSILON=  1.0000000 bulk dielectric constant

 LDA+U is selected, type is set to LDAUTYPE =  2
   angular momentum for each species LDAUL =     2   -1   -1    2   -1   -1   -1
   U (eV)           for each species LDAUU =   3.5  0.0  0.0  4.6  0.0  0.0  0.0
   J (eV)           for each species LDAUJ =   0.0  0.0  0.0  0.0  0.0  0.0  0.0
 Exchange correlation treatment:
   GGA     =    --    GGA type
   LEXCH   =     8    internal setting for exchange type
   VOSKOWN=      0    Vosko Wilk Nusair interpolation
   LHFCALC =     F    Hartree Fock is set to
   LHFONE  =     F    Hartree Fock one center treatment
   AEXX    =    0.0000 exact exchange contribution

 Linear response parameters
   LEPSILON=     F    determine dielectric tensor
   LRPA    =     F    only Hartree local field effects (RPA)
   LNABLA  =     F    use nabla operator in PAW spheres
   LVEL    =     F    velocity operator in full k-point grid
   LINTERFAST=   F  fast interpolation
   KINTER  =     0    interpolate to denser k-point grid
   CSHIFT  =0.1000    complex shift for real part using Kramers Kronig
   OMEGAMAX=  -1.0    maximum frequency
[...]
     -1.68948      2.92758     20.06221         0.000319      0.001283     -0.000397
     -4.22672      7.32285     20.06191        -0.001100      0.000549     -0.000065
      3.38758      2.92411     20.06008         0.000320      0.000331     -0.000583
      0.84821      7.32257     20.05883         0.000603     -0.000717     -0.000589
     -1.69015      2.93226     22.57087         0.000649      0.000686      0.000015
      5.91951      7.32550     22.57051        -0.000560      0.000561      0.001209
      3.38389      2.93048     22.56613        -0.000266      0.000675      0.001508
      0.85477      7.31126     22.56428        -0.000432      0.001199      0.001546
      9.30293      1.46175     24.84313         0.000037      0.000271     -0.000174
     -3.37732      5.86107     24.84293         0.000838      0.000579      0.001012
      4.22763      1.47028     24.84297         0.000521      0.000529      0.000545
      1.69330      5.86196     24.87710        -0.001300     -0.001637      0.002188
      4.23359      1.45567     17.80317         0.000494      0.000301      0.001531
      1.69568      5.85141     17.80170        -0.000013      0.000318     -0.002442
      9.30875      1.45685     17.80324         0.000034      0.000209      0.001305
      6.77021      5.85144     17.80305        -0.000433     -0.000023      0.001474
      0.84261      1.45360     24.31484        -0.000744      0.000167     -0.000615
     -1.69453      5.86122     24.30592         0.001227     -0.001391     -0.001325
      5.91753      1.47896     24.31448        -0.000007     -0.000301     -0.000661
      3.47273      5.86154     24.26782        -0.001755     -0.000192      0.002675
      0.84932      1.47120     18.30594         0.000301      0.000663      0.001557
     -1.68886      5.86655     18.30364        -0.000210      0.001275      0.001823
      5.92447      1.47146     18.30572        -0.001804      0.000285      0.003997
      3.38694      5.86631     18.30295        -0.000958     -0.000276      0.000061
      3.37529      0.01100     24.31458         0.001241      0.000447     -0.000212
      0.80305      4.32022     24.26927         0.000044      0.000152      0.000334
      8.46160      0.00473     24.30534        -0.000159     -0.000033      0.000750
      5.93525      4.39338     24.31446        -0.000243     -0.000576      0.000039
     -1.69903      8.79020     18.30578         0.000493      0.000346      0.001488
      0.83875      4.39491     18.30315        -0.001627      0.001668     -0.000166
      8.45164      0.00020     18.30354        -0.000791     -0.000918      0.000421
      5.91407      4.39485     18.30571        -0.001122      0.000121      0.001816
      8.45096      2.92119     24.31478         0.000150      0.000520     -0.001663
     -4.21484      7.32881     24.31443        -0.000916     -0.000001      0.000234
      3.38641      2.92761     24.30575         0.000461     -0.000659      0.000221
      0.80299      7.40296     24.26800         0.001217     -0.001385      0.001811
     -1.68809      2.92416     18.30599         0.000665      0.000584      0.001436
     -4.22554      7.31942     18.30566        -0.001068      0.000751      0.001816
      3.38736      2.92373     18.30389         0.001030      0.002181      0.000501
      0.84926      7.31950     18.30288         0.004958      0.001266      0.000402
      5.07511      8.79028     12.21351        -0.000469      0.000087      0.000506
      7.61261      4.39506     12.21350        -0.000140     -0.000313      0.000394
     -0.00005      8.79028     12.21358        -0.000475      0.000006      0.000483
      2.53742      4.39511     12.21350        -0.000023     -0.000118      0.000232
     -5.07496      8.79032     15.41072        -0.000547      0.000002     -0.000370
      7.61253      4.39497     15.41069         0.000231      0.000266     -0.000463
      5.07496      0.00011     15.41070         0.000219      0.000227      0.000515
      2.53748      4.39504     15.41041         0.000332     -0.000252      0.000142
      2.53750      1.46500     13.79504         0.000086     -0.000436      0.001134
     -0.00009      5.86015     13.79508        -0.000186      0.000427      0.002043
      7.61263      1.46495     13.79507         0.000452      0.000141      0.001247
      5.07509      5.86015     13.79503        -0.000298     -0.000242      0.001346
      1.58511      2.85277     12.65328         0.001162      0.000123     -0.000007
     -0.95238      7.24789     12.65328         0.000473     -0.000317      0.000387
      6.66025      2.85272     12.65321         0.000305     -0.000235      0.000208
      4.12268      7.24794     12.65331         0.000884     -0.000316      0.000060
     -0.72570      4.34148     12.65325        -0.000207      0.000904      0.000312
     -3.26322      8.73668     12.65322        -0.000475      0.000525     -0.000096
      4.34932      4.34149     12.65325        -0.000572      0.000474      0.000554
      1.81186      8.73667     12.65333        -0.000573      0.000495      0.000161
     -0.85952      1.59589     12.65327         0.000616     -0.000150      0.000601
     -3.39707      5.99104     12.65328         0.000717      0.000446      0.000533
      4.21556      1.59591     12.65329         0.000508      0.000039      0.000605
      1.67801      5.99111     12.65337         0.000576      0.000116      0.001052
     -1.58475      2.85503     14.92361         0.000792      0.000347     -0.000876
     -4.12227      7.25021     14.92358         0.000152      0.000474     -0.000505
      3.49039      2.85506     14.92373         0.000411     -0.000266     -0.000206
      0.95279      7.25031     14.92383         0.000706      0.000653     -0.000552
      0.85732      1.59522     14.92363         0.000100      0.000424     -0.000015
     -1.68032      5.99031     14.92381        -0.000347      0.000573      0.000006
      5.93240      1.59524     14.92363         0.000106      0.000504      0.000261
      3.39483      5.99035     14.92388        -0.001309      0.000286     -0.000617
      0.72731      4.33994     14.92378        -0.000069     -0.000410      0.000697
     -1.81024      8.73510     14.92365        -0.000116     -0.000454     -0.000444
      5.80240      4.33992     14.92360         0.000471     -0.000331     -0.000198
      3.26497      8.73509     14.92386         0.000280     -0.001201     -0.000447
     -0.00001      2.93010     13.78730        -0.003306     -0.003209     -0.016635
     -2.53757      7.32528     13.78728         0.001539     -0.002758     -0.013236
      5.07511      2.93009     13.78729        -0.000851     -0.001774     -0.017906
      2.53757      7.32529     13.78731        -0.001595     -0.001045     -0.013050
      1.69512      5.86382     25.90872        -0.005015     -0.005097      0.002231
 -----------------------------------------------------------------------------------
    total drift:                                0.023167      0.035151     -0.424813


--------------------------------------------------------------------------------------------------------



  FREE ENERGIE OF THE ION-ELECTRON SYSTEM (eV)
  ---------------------------------------------------
  free  energy   TOTEN  =      -916.52514501 eV

  energy  without entropy=     -916.52475929  energy(sigma->0) =     -916.52495215
 


--------------------------------------------------------------------------------------------------------


    POTLOK:  cpu time    1.6038: real time    1.6082


--------------------------------------------------------------------------------------------------------


 writing wavefunctions
     LOOP+:  cpu time15844.2736: real time15882.9019
    4ORBIT:  cpu time    0.0000: real time    0.0000
 


 total charge     
 
# of ion       s       p       d       tot
------------------------------------------
    1        2.312   6.279   3.816  12.407
    2        2.312   6.279   3.817  12.407
    3        2.312   6.279   3.817  12.407
    4        2.312   6.279   3.817  12.407
    5        2.312   6.279   3.817  12.407
    6        2.312   6.279   3.817  12.407
    7        2.312   6.279   3.816  12.407
    8        2.312   6.279   3.817  12.407
    9        2.312   6.279   3.816  12.407
   10        2.312   6.279   3.816  12.407
   11        2.312   6.279   3.816  12.407
   12        2.314   6.283   3.822  12.419
   13        1.243   2.559   0.000   3.802
   14        1.243   2.559   0.000   3.802
   15        1.243   2.559   0.000   3.802
   16        1.243   2.559   0.000   3.802
   17        1.242   2.565   0.000   3.807
   18        1.241   2.569   0.000   3.810
   19        1.242   2.565   0.000   3.807
   20        1.240   2.585   0.000   3.825
   21        1.225   2.657   0.000   3.882
   22        1.225   2.651   0.000   3.876
   23        1.225   2.651   0.000   3.876
   24        1.225   2.651   0.000   3.876
   25        1.225   2.661   0.000   3.885
   26        1.225   2.661   0.000   3.886
   27        1.225   2.661   0.000   3.886
   28        1.225   2.661   0.000   3.886
   29        1.243   2.559   0.000   3.802
   30        1.243   2.559   0.000   3.802
   31        1.243   2.559   0.000   3.802
   32        1.243   2.559   0.000   3.802
   33        1.242   2.565   0.000   3.807
   34        1.240   2.585   0.000   3.825
   35        1.241   2.569   0.000   3.811
   36        1.242   2.565   0.000   3.807
   37        1.225   2.651   0.000   3.876
   38        1.225   2.651   0.000   3.876
   39        1.225   2.657   0.000   3.882
   40        1.225   2.651   0.000   3.876
   41        1.225   2.661   0.000   3.886
   42        1.225   2.661   0.000   3.886
   43        1.225   2.661   0.000   3.885
   44        1.225   2.661   0.000   3.885
   45        1.243   2.559   0.000   3.802
   46        1.243   2.559   0.000   3.802
   47        1.243   2.559   0.000   3.802
   48        1.243   2.559   0.000   3.802
   49        1.242   2.565   0.000   3.807
   50        1.242   2.565   0.000   3.807
   51        1.241   2.569   0.000   3.810
   52        1.240   2.585   0.000   3.825
   53        1.224   2.653   0.000   3.877
   54        1.224   2.653   0.000   3.877
   55        1.224   2.653   0.000   3.877
   56        1.221   2.684   0.000   3.905
   57        1.225   2.661   0.000   3.885
   58        1.225   2.661   0.000   3.885
   59        1.225   2.661   0.000   3.885
   60        1.225   2.661   0.000   3.886
   61        0.677   0.947   0.000   1.624
   62        0.676   0.945   0.000   1.622
   63        0.677   0.948   0.000   1.624
   64        0.686   0.953   0.000   1.638
   65        0.676   0.948   0.000   1.624
   66        0.676   0.949   0.000   1.624
   67        0.676   0.948   0.000   1.624
   68        0.676   0.948   0.000   1.624
   69        0.677   0.948   0.000   1.624
   70        0.686   0.952   0.000   1.638
   71        0.676   0.945   0.000   1.622
   72        0.677   0.948   0.000   1.624
   73        0.676   0.948   0.000   1.624
   74        0.676   0.948   0.000   1.624
   75        0.676   0.949   0.000   1.624
   76        0.676   0.948   0.000   1.624
   77        0.677   0.947   0.000   1.624
   78        0.677   0.948   0.000   1.624
   79        0.676   0.945   0.000   1.622
   80        0.686   0.953   0.000   1.638
   81        0.676   0.948   0.000   1.624
   82        0.676   0.948   0.000   1.624
   83        0.676   0.949   0.000   1.624
   84        0.676   0.948   0.000   1.624
   85        0.409   0.446   8.237   9.093
   86        0.409   0.446   8.237   9.093
   87        0.409   0.446   8.237   9.093
   88        0.409   0.446   8.237   9.093
   89        0.400   0.445   8.238   9.083
   90        0.400   0.445   8.238   9.083
   91        0.400   0.445   8.238   9.083
   92        0.400   0.445   8.238   9.084
   93        0.365   0.488   8.273   9.126
   94        0.365   0.488   8.273   9.125
   95        0.365   0.488   8.273   9.126
   96        0.365   0.488   8.273   9.126
   97        1.571   3.469   0.000   5.039
   98        1.571   3.469   0.000   5.039
   99        1.571   3.469   0.000   5.039
  100        1.571   3.469   0.000   5.039
  101        1.571   3.469   0.000   5.039
  102        1.571   3.469   0.000   5.039
  103        1.571   3.469   0.000   5.039
  104        1.571   3.469   0.000   5.039
  105        1.571   3.469   0.000   5.039
  106        1.571   3.469   0.000   5.039
  107        1.571   3.469   0.000   5.039
  108        1.571   3.469   0.000   5.039
  109        1.570   3.472   0.000   5.043
  110        1.570   3.472   0.000   5.043
  111        1.570   3.472   0.000   5.043
  112        1.570   3.472   0.000   5.043
  113        1.570   3.472   0.000   5.043
  114        1.570   3.472   0.000   5.043
  115        1.570   3.472   0.000   5.043
  116        1.570   3.472   0.000   5.043
  117        1.570   3.472   0.000   5.043
  118        1.570   3.472   0.000   5.043
  119        1.570   3.472   0.000   5.043
  120        1.570   3.472   0.000   5.043
  121        1.219   1.560   0.498   3.277
  122        1.219   1.560   0.498   3.277
  123        1.219   1.560   0.498   3.277
  124        1.219   1.559   0.498   3.277
  125        0.612   0.080   0.000   0.692
--------------------------------------------------
tot        151.080 318.589 146.788 616.458
 


 magnetization (x)
 
# of ion       s       p       d       tot
------------------------------------------
    1        0.000   0.000   0.000   0.000
    2        0.000   0.000   0.000   0.000
    3        0.000   0.000   0.000   0.000
    4        0.000   0.000   0.000   0.000
    5        0.000   0.000   0.000   0.000
    6        0.000   0.000   0.000   0.000
    7        0.000   0.000   0.000   0.000
    8        0.000   0.000   0.000   0.000
    9        0.000   0.000   0.001   0.001
   10        0.000   0.000   0.001   0.001
   11        0.000   0.000   0.000   0.000
   12        0.000   0.000   0.000   0.000
   13        0.000   0.000   0.000   0.000
   14        0.000   0.000   0.000   0.000
   15        0.000   0.000   0.000   0.000
   16        0.000   0.000   0.000   0.000
   17       -0.000  -0.000   0.000  -0.000
   18       -0.000  -0.000   0.000  -0.000
   19       -0.000  -0.000   0.000  -0.000
   20       -0.000  -0.000   0.000  -0.000
   21       -0.000  -0.000   0.000  -0.000
   22       -0.000  -0.000   0.000  -0.000
   23       -0.000  -0.000   0.000  -0.000
   24       -0.000  -0.000   0.000  -0.000
   25        0.001   0.003   0.000   0.003
   26        0.001   0.003   0.000   0.003
   27        0.001   0.003   0.000   0.003
   28        0.001   0.003   0.000   0.003
   29        0.000   0.000   0.000   0.000
   30        0.000   0.000   0.000   0.000
   31        0.000   0.000   0.000   0.000
   32        0.000   0.000   0.000   0.000
   33       -0.000  -0.000   0.000  -0.000
   34       -0.000  -0.000   0.000  -0.000
   35       -0.000  -0.000   0.000  -0.000
   36       -0.000  -0.000   0.000  -0.000
   37       -0.000  -0.000   0.000  -0.000
   38       -0.000  -0.000   0.000  -0.000
   39       -0.000  -0.000   0.000  -0.000
   40       -0.000  -0.000   0.000  -0.000
   41        0.001   0.003   0.000   0.003
   42        0.001   0.003   0.000   0.003
   43        0.001   0.003   0.000   0.003
   44        0.001   0.003   0.000   0.003
   45        0.000   0.000   0.000   0.000
   46        0.000   0.000   0.000   0.000
   47        0.000   0.000   0.000   0.000
   48        0.000   0.000   0.000   0.000
   49       -0.000  -0.000   0.000  -0.000
   50       -0.000  -0.000   0.000  -0.000
   51       -0.000  -0.000   0.000  -0.000
   52        0.000  -0.000   0.000  -0.000
   53       -0.000  -0.000   0.000  -0.000
   54       -0.000  -0.000   0.000  -0.000
   55       -0.000  -0.000   0.000  -0.000
   56       -0.000   0.000   0.000  -0.000
   57        0.001   0.003   0.000   0.003
   58        0.001   0.003   0.000   0.003
   59        0.001   0.003   0.000   0.003
   60        0.001   0.003   0.000   0.003
   61        0.000   0.000   0.000   0.000
   62        0.000   0.000   0.000   0.000
   63        0.000   0.000   0.000   0.000
   64        0.000  -0.000   0.000   0.000
   65       -0.000   0.000   0.000   0.000
   66       -0.000   0.000   0.000   0.000
   67       -0.000   0.000   0.000   0.000
   68       -0.000   0.000   0.000   0.000
   69        0.000   0.000   0.000   0.000
   70        0.000  -0.000   0.000   0.000
   71        0.000   0.000   0.000   0.000
   72        0.000   0.000   0.000   0.000
   73       -0.000   0.000   0.000   0.000
   74       -0.000   0.000   0.000   0.000
   75       -0.000   0.000   0.000   0.000
   76       -0.000   0.000   0.000   0.000
   77        0.000   0.000   0.000   0.000
   78        0.000   0.000   0.000   0.000
   79        0.000   0.000   0.000   0.000
   80        0.000  -0.000   0.000   0.000
   81       -0.000   0.000   0.000   0.000
   82       -0.000   0.000   0.000   0.000
   83       -0.000   0.000   0.000   0.000
   84       -0.000   0.000   0.000   0.000
   85        0.005   0.042   1.648   1.695
   86        0.005   0.042   1.648   1.695
   87        0.005   0.042   1.648   1.695
   88        0.005   0.042   1.648   1.695
   89        0.005   0.040   1.651   1.696
   90        0.005   0.040   1.651   1.696
   91        0.005   0.040   1.651   1.696
   92        0.005   0.040   1.651   1.696
   93        0.004   0.005   1.720   1.729
   94        0.004   0.005   1.720   1.729
   95        0.004   0.005   1.720   1.729
   96        0.004   0.005   1.720   1.729
   97        0.007   0.108   0.000   0.114
   98        0.007   0.108   0.000   0.114
   99        0.007   0.108   0.000   0.114
  100        0.007   0.108   0.000   0.114
  101        0.007   0.108   0.000   0.114
  102        0.007   0.108   0.000   0.114
  103        0.007   0.108   0.000   0.114
  104        0.007   0.108   0.000   0.114
  105        0.007   0.108   0.000   0.114
  106        0.007   0.108   0.000   0.114
  107        0.007   0.108   0.000   0.114
  108        0.007   0.108   0.000   0.114
  109        0.007   0.105   0.000   0.112
  110        0.007   0.105   0.000   0.112
  111        0.007   0.105   0.000   0.112
  112        0.007   0.105   0.000   0.112
  113        0.007   0.105   0.000   0.112
  114        0.007   0.105   0.000   0.112
  115        0.007   0.105   0.000   0.112
  116        0.007   0.105   0.000   0.112
  117        0.007   0.105   0.000   0.112
  118        0.007   0.105   0.000   0.112
  119        0.007   0.105   0.000   0.112
  120        0.007   0.105   0.000   0.112
  121       -0.002   0.003   0.004   0.005
  122       -0.002   0.003   0.004   0.005
  123       -0.002   0.003   0.004   0.005
  124       -0.002   0.003   0.004   0.005
  125       -0.000  -0.000   0.000  -0.000
--------------------------------------------------
tot          0.214   2.953  20.098  23.265
 

 total amount of memory used by VASP MPI-rank0  1284485. kBytes
=======================================================================

   base      :      30000. kBytes
   nonlr-proj:      27704. kBytes
   fftplans  :      29818. kBytes
   grid      :      79242. kBytes
   one-center:       3888. kBytes
   wavefun   :    1113833. kBytes
 
  
  
 General timing and accounting informations for this job:
 ========================================================
  
                  Total CPU time used (sec):    16085.429
                            User time (sec):    16051.259
                          System time (sec):       34.170
                         Elapsed time (sec):    16124.821
  
                   Maximum memory used (kb):     2069268.
                   Average memory used (kb):           0.
  
                          Minor page faults:      3818588
                          Major page faults:            0
                 Voluntary context switches:         1062
