 running on   32 total cores
 distrk:  each k-point on   32 cores,    1 groups
 distr:  one band on    1 cores,   32 groups
 using from now: INCAR     
 vasp.6.1.2 22Jul20 (build Aug 13 2020 05:42:33) complex                        
  
 POSCAR found type information on POSCAR MoN SiNiO TeH 
 POSCAR found :  7 types and     125 ions
 -----------------------------------------------------------------------------
|                                                                             |
|           W    W    AA    RRRRR   N    N  II  N    N   GGGG   !!!           |
|           W    W   A  A   R    R  NN   N  II  NN   N  G    G  !!!           |
|           W    W  A    A  R    R  N N  N  II  N N  N  G       !!!           |
|           W WW W  AAAAAA  RRRRR   N  N N  II  N  N N  G  GGG   !            |
|           WW  WW  A    A  R   R   N   NN  II  N   NN  G    G                |
|           W    W  A    A  R    R  N    N  II  N    N   GGGG   !!!           |
|                                                                             |
|     You use a magnetic or noncollinear calculation, but did not specify     |
|     the initial magnetic moment with the MAGMOM tag. Note that a            |
|     default of 1 will be used for all atoms. This ferromagnetic setup       |
|     may break the symmetry of the crystal, in particular it may rule        |
|     out finding an antiferromagnetic solution. Thence, we recommend         |
|     setting the initial magnetic moment manually or verifying carefully     |
|     that this magnetic setup is desired.                                    |
|                                                                             |
 -----------------------------------------------------------------------------

 scaLAPACK will be used
 -----------------------------------------------------------------------------
|                                                                             |
|           W    W    AA    RRRRR   N    N  II  N    N   GGGG   !!!           |
|           W    W   A  A   R    R  NN   N  II  NN   N  G    G  !!!           |
|           W    W  A    A  R    R  N N  N  II  N N  N  G       !!!           |
|           W WW W  AAAAAA  RRRRR   N  N N  II  N  N N  G  GGG   !            |
|           WW  WW  A    A  R   R   N   NN  II  N   NN  G    G                |
|           W    W  A    A  R    R  N    N  II  N    N   GGGG   !!!           |
|                                                                             |
|     For optimal performance we recommend to set                             |
|       NCORE = 4 - approx SQRT(number of cores).                             |
|     NCORE specifies how many cores store one orbital (NPAR=cpu/NCORE).      |
|     This setting can greatly improve the performance of VASP for DFT.       |
|     The default, NCORE=1 might be grossly inefficient on modern             |
|     multi-core architectures or massively parallel machines. Do your        |
|     own testing!!!!                                                         |
|     Unfortunately you need to use the default for GW and RPA                |
|     calculations (for HF NCORE is supported but not extensively tested      |
|     yet).                                                                   |
|                                                                             |
 -----------------------------------------------------------------------------

 LDA part: xc-table for Pade appr. of Perdew
 -----------------------------------------------------------------------------
|                                                                             |
|           W    W    AA    RRRRR   N    N  II  N    N   GGGG   !!!           |
|           W    W   A  A   R    R  NN   N  II  NN   N  G    G  !!!           |
|           W    W  A    A  R    R  N N  N  II  N N  N  G       !!!           |
|           W WW W  AAAAAA  RRRRR   N  N N  II  N  N N  G  GGG   !            |
|           WW  WW  A    A  R   R   N   NN  II  N   NN  G    G                |
|           W    W  A    A  R    R  N    N  II  N    N   GGGG   !!!           |
|                                                                             |
|     The determination of the symmetry of your systems shows a strong        |
|     dependence on the tolerance parameter SYMPREC. This is often the        |
|     result of "noise" in the structural parameters (lattice vectors         |
|     and/or ionic positions). Set NWRITE=3 for more details.                 |
|                                                                             |
 -----------------------------------------------------------------------------

 POSCAR, INCAR and KPOINTS ok, starting setup
 FFT: planning ...
 WAVECAR not read
 WARNING: random wavefunctions but no delay for mixing, default for NELMDL
 entering main loop
       N       E                     dE             d eps       ncg     rms          rms(c)
DAV:   1     0.777550606051E+04    0.77755E+04   -0.38085E+05 55296   0.131E+03
DAV:   2     0.724692437265E+02   -0.77030E+04   -0.72216E+04 60000   0.354E+02
DAV:   3    -0.957699014446E+03   -0.10302E+04   -0.10050E+04 62432   0.137E+02
DAV:   4    -0.100327741900E+04   -0.45578E+02   -0.44768E+02 63424   0.322E+01
DAV:   5    -0.100506649357E+04   -0.17891E+01   -0.17837E+01 74208   0.619E+00    0.166E+02
DAV:   6    -0.789508476283E+03    0.21556E+03   -0.95512E+02 68544   0.673E+01    0.820E+01
DAV:   7    -0.784731160443E+03    0.47773E+01   -0.17070E+02 61792   0.448E+01    0.496E+01
DAV:   8    -0.780687179651E+03    0.40440E+01   -0.32369E+01 71584   0.120E+01    0.306E+01
DAV:   9    -0.782264775478E+03   -0.15776E+01   -0.96175E+00 70976   0.173E+01    0.221E+01
DAV:  10    -0.796721146009E+03   -0.14456E+02   -0.72039E+00 68768   0.513E+00    0.179E+01
DAV:  11    -0.808208601365E+03   -0.11487E+02   -0.36346E+00 62752   0.691E+00    0.158E+01
DAV:  12    -0.825254503656E+03   -0.17046E+02   -0.56465E+00 64928   0.502E+00    0.131E+01
DAV:  13    -0.852148605000E+03   -0.26894E+02   -0.21817E+01 58976   0.572E+00    0.871E+00
DAV:  14    -0.872400214053E+03   -0.20252E+02   -0.18887E+01 64672   0.513E+00    0.650E+00
DAV:  15    -0.882575893253E+03   -0.10176E+02   -0.65750E+00 58272   0.344E+00    0.535E+00
DAV:  16    -0.885916573853E+03   -0.33407E+01   -0.12675E+00 62560   0.191E+00    0.459E+00
DAV:  17    -0.888859209546E+03   -0.29426E+01   -0.78412E-01 63680   0.166E+00    0.384E+00
DAV:  18    -0.891098097292E+03   -0.22389E+01   -0.13007E+00 59072   0.165E+00    0.293E+00
DAV:  19    -0.892541985668E+03   -0.14439E+01   -0.49001E-01 57696   0.112E+00    0.246E+00
DAV:  20    -0.893864486741E+03   -0.13225E+01   -0.33195E-01 58944   0.955E-01    0.175E+00
DAV:  21    -0.894907136274E+03   -0.10426E+01   -0.29507E-01 58976   0.104E+00    0.126E+00
DAV:  22    -0.895259910185E+03   -0.35277E+00   -0.64999E-02 62336   0.508E-01    0.803E-01
DAV:  23    -0.895360881324E+03   -0.10097E+00   -0.19810E-02 60384   0.310E-01    0.588E-01
DAV:  24    -0.895632384762E+03   -0.27150E+00   -0.70147E-03 64576   0.267E-01    0.326E-01
DAV:  25    -0.895922891063E+03   -0.29051E+00   -0.31625E-03 66048   0.180E-01    0.205E-01
DAV:  26    -0.896139812258E+03   -0.21692E+00   -0.18257E-03 60128   0.906E-02    0.134E-01
DAV:  27    -0.896269195570E+03   -0.12938E+00   -0.11981E-03 60064   0.760E-02    0.877E-02
DAV:  28    -0.896318465415E+03   -0.49270E-01   -0.35525E-04 67744   0.604E-02    0.426E-02
DAV:  29    -0.896332101383E+03   -0.13636E-01   -0.13831E-04 66336   0.338E-02    0.256E-02
DAV:  30    -0.896334067325E+03   -0.19659E-02   -0.30082E-05 50752   0.161E-02    0.161E-02
DAV:  31    -0.896335206560E+03   -0.11392E-02   -0.25270E-05 47936   0.112E-02    0.848E-03
DAV:  32    -0.896335624008E+03   -0.41745E-03   -0.10095E-05 46144   0.686E-03    0.612E-03
DAV:  33    -0.896335768993E+03   -0.14498E-03   -0.25576E-06 43136   0.461E-03    0.474E-03
DAV:  34    -0.896335857943E+03   -0.88950E-04   -0.16002E-06 42144   0.297E-03    0.365E-03
DAV:  35    -0.896335973242E+03   -0.11530E-03   -0.19436E-06 40480   0.317E-03    0.290E-03
DAV:  36    -0.896336035664E+03   -0.62423E-04   -0.13370E-06 42176   0.258E-03    0.219E-03
DAV:  37    -0.896336071890E+03   -0.36225E-04   -0.91387E-07 41280   0.166E-03    0.196E-03
DAV:  38    -0.896336091118E+03   -0.19228E-04   -0.49793E-07 40960   0.134E-03    0.158E-03
DAV:  39    -0.896336110547E+03   -0.19429E-04   -0.44714E-07 41344   0.132E-03    0.144E-03
DAV:  40    -0.896336118664E+03   -0.81168E-05   -0.30628E-07 41696   0.960E-04
   1 F= -.91652515E+03 E0= -.91652495E+03  d E =-.385718E-03  mag=    24.0002
 writing wavefunctions
